n -t * -s 0  -x 930.76832915226385 -y 423.3080620985981 -Z 0 -z 100  -v circle -c green
n -t * -s 1  -x 538.59969113888201 -y 245.00897119054989 -Z 0 -z 100  -v circle -c green
n -t * -s 2  -x 865.77879957192511 -y 144.28440534709227 -Z 0 -z 100  -v circle -c green
n -t * -s 3  -x 988.00066857971285 -y 327.23681923338995 -Z 0 -z 100  -v circle -c green
n -t * -s 4  -x 869.22085558493666 -y 994.91981602968633 -Z 0 -z 100  -v circle -c green
n -t * -s 5  -x 617.34801093924227 -y 768.0198558457289 -Z 0 -z 100  -v circle -c green
n -t * -s 6  -x 109.71719916431103 -y 16.966354575458148 -Z 0 -z 100  -v circle -c green
n -t * -s 7  -x 153.5213497250906 -y 233.32482959764303 -Z 0 -z 100  -v circle -c green
n -t * -s 8  -x 490.41104758643127 -y 338.47678515057862 -Z 0 -z 100  -v circle -c green
n -t * -s 9  -x 779.32802577471739 -y 166.12919567438269 -Z 0 -z 100  -v circle -c green
n -t * -s 10  -x 133.39169935015573 -y 914.29097806769005 -Z 0 -z 100  -v circle -c green
n -t * -s 11  -x 488.46838366634603 -y 688.12428027769749 -Z 0 -z 100  -v circle -c green
n -t * -s 12  -x 304.77862726188198 -y 414.38839045091925 -Z 0 -z 100  -v circle -c green
n -t * -s 13  -x 625.67830859947867 -y 775.33263143865986 -Z 0 -z 100  -v circle -c green
n -t * -s 14  -x 15.536589555226541 -y 123.4606546924732 -Z 0 -z 100  -v circle -c green
n -t * -s 15  -x 3.2234163969864214 -y 175.95938415078419 -Z 0 -z 100  -v circle -c green
n -t * -s 16  -x 349.36942222964456 -y 851.87941363634513 -Z 0 -z 100  -v circle -c green
n -t * -s 17  -x 537.30498605282276 -y 484.90058979247726 -Z 0 -z 100  -v circle -c green
n -t * -s 18  -x 724.21264216499992 -y 841.87686715362452 -Z 0 -z 100  -v circle -c green
n -t * -s 19  -x 424.50625096657609 -y 676.55999524358651 -Z 0 -z 100  -v circle -c green
n -t * -s 20  -x 943.84005895994608 -y 119.87093981349419 -Z 0 -z 100  -v circle -c green
n -t * -s 21  -x 670.88544539682823 -y 571.68078449167342 -Z 0 -z 100  -v circle -c green
n -t * -s 22  -x 238.94495155613168 -y 947.80080390526018 -Z 0 -z 100  -v circle -c green
n -t * -s 23  -x 688.11123570805012 -y 85.53854519759237 -Z 0 -z 100  -v circle -c green
n -t * -s 24  -x 646.32913593497551 -y 853.78765913368557 -Z 0 -z 100  -v circle -c green
V -t * -v 1.0a5 -a 0
W -t * -x 1000 -y 1000
A -t * -n 1 -p 0 -o 0x7fffffff -c 30 -a 1
A -t * -h 1 -m 1073741823 -s 0
+ -t 0.000000000 -s 4 -d -1 -p cbr -e 210 -c 2 -a 0 -i 0 -k AGT 
- -t 0.000000000 -s 4 -d -1 -p cbr -e 210 -c 2 -a 0 -i 0 -k AGT
h -t 0.000000000 -s 4 -d -1 -p cbr -e 210 -c 2 -a 0 -i 0 -k AGT
+ -t 0.000000000 -s 4 -d -1 -p AODV -e 48 -c 2 -a 0 -i 0 -k RTR 
- -t 0.000000000 -s 4 -d -1 -p AODV -e 48 -c 2 -a 0 -i 0 -k RTR
h -t 0.000000000 -s 4 -d -1 -p AODV -e 48 -c 2 -a 0 -i 0 -k RTR
r -t 0.001408703 -s 18 -d -1 -p AODV -e 48 -c 2 -a 0 -i 0 -k RTR
+ -t 0.001550749 -s 18 -d -1 -p AODV -e 48 -c 2 -a 0 -i 0 -k RTR 
- -t 0.001550749 -s 18 -d -1 -p AODV -e 48 -c 2 -a 0 -i 0 -k RTR
h -t 0.001550749 -s 18 -d -1 -p AODV -e 48 -c 2 -a 0 -i 0 -k RTR
r -t 0.002799012 -s 24 -d -1 -p AODV -e 48 -c 2 -a 0 -i 0 -k RTR
r -t 0.002799146 -s 13 -d -1 -p AODV -e 48 -c 2 -a 0 -i 0 -k RTR
r -t 0.002799182 -s 5 -d -1 -p AODV -e 48 -c 2 -a 0 -i 0 -k RTR
r -t 0.002799452 -s 4 -d -1 -p AODV -e 48 -c 2 -a 0 -i 0 -k RTR
+ -t 0.003750000 -s 4 -d -1 -p cbr -e 210 -c 2 -a 0 -i 1 -k AGT 
- -t 0.003750000 -s 4 -d -1 -p cbr -e 210 -c 2 -a 0 -i 1 -k AGT
h -t 0.003750000 -s 4 -d -1 -p cbr -e 210 -c 2 -a 0 -i 1 -k AGT
+ -t 0.005928763 -s 13 -d -1 -p AODV -e 48 -c 2 -a 0 -i 0 -k RTR 
- -t 0.005928763 -s 13 -d -1 -p AODV -e 48 -c 2 -a 0 -i 0 -k RTR
h -t 0.005928763 -s 13 -d -1 -p AODV -e 48 -c 2 -a 0 -i 0 -k RTR
r -t 0.007116800 -s 5 -d -1 -p AODV -e 48 -c 2 -a 0 -i 0 -k RTR
r -t 0.007117034 -s 24 -d -1 -p AODV -e 48 -c 2 -a 0 -i 0 -k RTR
r -t 0.007117160 -s 18 -d -1 -p AODV -e 48 -c 2 -a 0 -i 0 -k RTR
r -t 0.007117305 -s 11 -d -1 -p AODV -e 48 -c 2 -a 0 -i 0 -k RTR
r -t 0.007117459 -s 21 -d -1 -p AODV -e 48 -c 2 -a 0 -i 0 -k RTR
r -t 0.007117510 -s 19 -d -1 -p AODV -e 48 -c 2 -a 0 -i 0 -k RTR
+ -t 0.007500000 -s 4 -d -1 -p cbr -e 210 -c 2 -a 0 -i 2 -k AGT 
- -t 0.007500000 -s 4 -d -1 -p cbr -e 210 -c 2 -a 0 -i 2 -k AGT
h -t 0.007500000 -s 4 -d -1 -p cbr -e 210 -c 2 -a 0 -i 2 -k AGT
+ -t 0.008758965 -s 19 -d -1 -p AODV -e 48 -c 2 -a 0 -i 0 -k RTR 
- -t 0.008758965 -s 19 -d -1 -p AODV -e 48 -c 2 -a 0 -i 0 -k RTR
h -t 0.008758965 -s 19 -d -1 -p AODV -e 48 -c 2 -a 0 -i 0 -k RTR
+ -t 0.010208096 -s 11 -d -1 -p AODV -e 48 -c 2 -a 0 -i 0 -k RTR 
- -t 0.010208096 -s 11 -d -1 -p AODV -e 48 -c 2 -a 0 -i 0 -k RTR
h -t 0.010208096 -s 11 -d -1 -p AODV -e 48 -c 2 -a 0 -i 0 -k RTR
r -t 0.010247181 -s 11 -d -1 -p AODV -e 48 -c 2 -a 0 -i 0 -k RTR
r -t 0.010247600 -s 16 -d -1 -p AODV -e 48 -c 2 -a 0 -i 0 -k RTR
r -t 0.010247676 -s 5 -d -1 -p AODV -e 48 -c 2 -a 0 -i 0 -k RTR
r -t 0.010247706 -s 17 -d -1 -p AODV -e 48 -c 2 -a 0 -i 0 -k RTR
r -t 0.010247712 -s 13 -d -1 -p AODV -e 48 -c 2 -a 0 -i 0 -k RTR
+ -t 0.010790567 -s 24 -d -1 -p AODV -e 48 -c 2 -a 0 -i 0 -k RTR 
- -t 0.010790567 -s 24 -d -1 -p AODV -e 48 -c 2 -a 0 -i 0 -k RTR
h -t 0.010790567 -s 24 -d -1 -p AODV -e 48 -c 2 -a 0 -i 0 -k RTR
+ -t 0.010963943 -s 5 -d -1 -p AODV -e 48 -c 2 -a 0 -i 0 -k RTR 
- -t 0.010963943 -s 5 -d -1 -p AODV -e 48 -c 2 -a 0 -i 0 -k RTR
h -t 0.010963943 -s 5 -d -1 -p AODV -e 48 -c 2 -a 0 -i 0 -k RTR
+ -t 0.011250000 -s 4 -d -1 -p cbr -e 210 -c 2 -a 0 -i 3 -k AGT 
- -t 0.011250000 -s 4 -d -1 -p cbr -e 210 -c 2 -a 0 -i 3 -k AGT
h -t 0.011250000 -s 4 -d -1 -p cbr -e 210 -c 2 -a 0 -i 3 -k AGT
r -t 0.011516313 -s 19 -d -1 -p AODV -e 48 -c 2 -a 0 -i 0 -k RTR
r -t 0.011516601 -s 5 -d -1 -p AODV -e 48 -c 2 -a 0 -i 0 -k RTR
r -t 0.011516638 -s 13 -d -1 -p AODV -e 48 -c 2 -a 0 -i 0 -k RTR
r -t 0.011516793 -s 17 -d -1 -p AODV -e 48 -c 2 -a 0 -i 0 -k RTR
r -t 0.011516812 -s 16 -d -1 -p AODV -e 48 -c 2 -a 0 -i 0 -k RTR
r -t 0.011516817 -s 21 -d -1 -p AODV -e 48 -c 2 -a 0 -i 0 -k RTR
r -t 0.011516859 -s 24 -d -1 -p AODV -e 48 -c 2 -a 0 -i 0 -k RTR
r -t 0.012754638 -s 13 -d -1 -p AODV -e 48 -c 2 -a 0 -i 0 -k RTR
r -t 0.012754903 -s 24 -d -1 -p AODV -e 48 -c 2 -a 0 -i 0 -k RTR
r -t 0.012755034 -s 18 -d -1 -p AODV -e 48 -c 2 -a 0 -i 0 -k RTR
r -t 0.012755107 -s 11 -d -1 -p AODV -e 48 -c 2 -a 0 -i 0 -k RTR
r -t 0.012755280 -s 21 -d -1 -p AODV -e 48 -c 2 -a 0 -i 0 -k RTR
r -t 0.012755313 -s 19 -d -1 -p AODV -e 48 -c 2 -a 0 -i 0 -k RTR
r -t 0.013793166 -s 18 -d -1 -p AODV -e 48 -c 2 -a 0 -i 0 -k RTR
r -t 0.013793174 -s 13 -d -1 -p AODV -e 48 -c 2 -a 0 -i 0 -k RTR
r -t 0.013793205 -s 5 -d -1 -p AODV -e 48 -c 2 -a 0 -i 0 -k RTR
r -t 0.013793666 -s 11 -d -1 -p AODV -e 48 -c 2 -a 0 -i 0 -k RTR
+ -t 0.014484273 -s 17 -d -1 -p AODV -e 48 -c 2 -a 0 -i 0 -k RTR 
- -t 0.014484273 -s 17 -d -1 -p AODV -e 48 -c 2 -a 0 -i 0 -k RTR
h -t 0.014484273 -s 17 -d -1 -p AODV -e 48 -c 2 -a 0 -i 0 -k RTR
+ -t 0.015000000 -s 4 -d -1 -p cbr -e 210 -c 2 -a 0 -i 4 -k AGT 
- -t 0.015000000 -s 4 -d -1 -p cbr -e 210 -c 2 -a 0 -i 4 -k AGT
h -t 0.015000000 -s 4 -d -1 -p cbr -e 210 -c 2 -a 0 -i 4 -k AGT
r -t 0.015452786 -s 8 -d -1 -p AODV -e 48 -c 2 -a 0 -i 0 -k RTR
r -t 0.015452804 -s 21 -d -1 -p AODV -e 48 -c 2 -a 0 -i 0 -k RTR
r -t 0.015452970 -s 11 -d -1 -p AODV -e 48 -c 2 -a 0 -i 0 -k RTR
r -t 0.015453014 -s 19 -d -1 -p AODV -e 48 -c 2 -a 0 -i 0 -k RTR
r -t 0.015453073 -s 1 -d -1 -p AODV -e 48 -c 2 -a 0 -i 0 -k RTR
r -t 0.015453083 -s 12 -d -1 -p AODV -e 48 -c 2 -a 0 -i 0 -k RTR
+ -t 0.015480694 -s 21 -d -1 -p AODV -e 48 -c 2 -a 0 -i 0 -k RTR 
- -t 0.015480694 -s 21 -d -1 -p AODV -e 48 -c 2 -a 0 -i 0 -k RTR
h -t 0.015480694 -s 21 -d -1 -p AODV -e 48 -c 2 -a 0 -i 0 -k RTR
r -t 0.016829225 -s 17 -d -1 -p AODV -e 48 -c 2 -a 0 -i 0 -k RTR
r -t 0.016829373 -s 5 -d -1 -p AODV -e 48 -c 2 -a 0 -i 0 -k RTR
r -t 0.016829390 -s 13 -d -1 -p AODV -e 48 -c 2 -a 0 -i 0 -k RTR
r -t 0.016829416 -s 11 -d -1 -p AODV -e 48 -c 2 -a 0 -i 0 -k RTR
+ -t 0.018750000 -s 4 -d -1 -p cbr -e 210 -c 2 -a 0 -i 5 -k AGT 
- -t 0.018750000 -s 4 -d -1 -p cbr -e 210 -c 2 -a 0 -i 5 -k AGT
h -t 0.018750000 -s 4 -d -1 -p cbr -e 210 -c 2 -a 0 -i 5 -k AGT
+ -t 0.018844877 -s 16 -d -1 -p AODV -e 48 -c 2 -a 0 -i 0 -k RTR 
- -t 0.018844877 -s 16 -d -1 -p AODV -e 48 -c 2 -a 0 -i 0 -k RTR
h -t 0.018844877 -s 16 -d -1 -p AODV -e 48 -c 2 -a 0 -i 0 -k RTR
+ -t 0.020113945 -s 8 -d -1 -p AODV -e 48 -c 2 -a 0 -i 0 -k RTR 
- -t 0.020113945 -s 8 -d -1 -p AODV -e 48 -c 2 -a 0 -i 0 -k RTR
h -t 0.020113945 -s 8 -d -1 -p AODV -e 48 -c 2 -a 0 -i 0 -k RTR
r -t 0.020153365 -s 22 -d -1 -p AODV -e 48 -c 2 -a 0 -i 0 -k RTR
r -t 0.020153513 -s 19 -d -1 -p AODV -e 48 -c 2 -a 0 -i 0 -k RTR
r -t 0.020153594 -s 11 -d -1 -p AODV -e 48 -c 2 -a 0 -i 0 -k RTR
r -t 0.020153627 -s 10 -d -1 -p AODV -e 48 -c 2 -a 0 -i 0 -k RTR
r -t 0.021717003 -s 1 -d -1 -p AODV -e 48 -c 2 -a 0 -i 0 -k RTR
r -t 0.021717165 -s 17 -d -1 -p AODV -e 48 -c 2 -a 0 -i 0 -k RTR
r -t 0.021717321 -s 12 -d -1 -p AODV -e 48 -c 2 -a 0 -i 0 -k RTR
+ -t 0.022376141 -s 1 -d -1 -p AODV -e 48 -c 2 -a 0 -i 0 -k RTR 
- -t 0.022376141 -s 1 -d -1 -p AODV -e 48 -c 2 -a 0 -i 0 -k RTR
h -t 0.022376141 -s 1 -d -1 -p AODV -e 48 -c 2 -a 0 -i 0 -k RTR
+ -t 0.022500000 -s 4 -d -1 -p cbr -e 210 -c 2 -a 0 -i 6 -k AGT 
- -t 0.022500000 -s 4 -d -1 -p cbr -e 210 -c 2 -a 0 -i 6 -k AGT
h -t 0.022500000 -s 4 -d -1 -p cbr -e 210 -c 2 -a 0 -i 6 -k AGT
r -t 0.023604492 -s 8 -d -1 -p AODV -e 48 -c 2 -a 0 -i 0 -k RTR
r -t 0.023604870 -s 23 -d -1 -p AODV -e 48 -c 2 -a 0 -i 0 -k RTR
r -t 0.023604941 -s 17 -d -1 -p AODV -e 48 -c 2 -a 0 -i 0 -k RTR
+ -t 0.024073756 -s 12 -d -1 -p AODV -e 48 -c 2 -a 0 -i 0 -k RTR 
- -t 0.024073756 -s 12 -d -1 -p AODV -e 48 -c 2 -a 0 -i 0 -k RTR
h -t 0.024073756 -s 12 -d -1 -p AODV -e 48 -c 2 -a 0 -i 0 -k RTR
+ -t 0.025478522 -s 23 -d -1 -p AODV -e 48 -c 2 -a 0 -i 0 -k RTR 
- -t 0.025478522 -s 23 -d -1 -p AODV -e 48 -c 2 -a 0 -i 0 -k RTR
h -t 0.025478522 -s 23 -d -1 -p AODV -e 48 -c 2 -a 0 -i 0 -k RTR
r -t 0.025542424 -s 8 -d -1 -p AODV -e 48 -c 2 -a 0 -i 0 -k RTR
r -t 0.025542542 -s 7 -d -1 -p AODV -e 48 -c 2 -a 0 -i 0 -k RTR
r -t 0.025542566 -s 17 -d -1 -p AODV -e 48 -c 2 -a 0 -i 0 -k RTR
+ -t 0.026250000 -s 4 -d -1 -p cbr -e 210 -c 2 -a 0 -i 7 -k AGT 
- -t 0.026250000 -s 4 -d -1 -p cbr -e 210 -c 2 -a 0 -i 7 -k AGT
h -t 0.026250000 -s 4 -d -1 -p cbr -e 210 -c 2 -a 0 -i 7 -k AGT
+ -t 0.026662856 -s 7 -d -1 -p AODV -e 48 -c 2 -a 0 -i 0 -k RTR 
- -t 0.026662856 -s 7 -d -1 -p AODV -e 48 -c 2 -a 0 -i 0 -k RTR
h -t 0.026662856 -s 7 -d -1 -p AODV -e 48 -c 2 -a 0 -i 0 -k RTR
r -t 0.027025845 -s 9 -d -1 -p AODV -e 48 -c 2 -a 0 -i 0 -k RTR
r -t 0.027026063 -s 2 -d -1 -p AODV -e 48 -c 2 -a 0 -i 0 -k RTR
r -t 0.027671392 -s 15 -d -1 -p AODV -e 48 -c 2 -a 0 -i 0 -k RTR
r -t 0.027671443 -s 14 -d -1 -p AODV -e 48 -c 2 -a 0 -i 0 -k RTR
r -t 0.027671591 -s 6 -d -1 -p AODV -e 48 -c 2 -a 0 -i 0 -k RTR
+ -t 0.027775684 -s 22 -d -1 -p AODV -e 48 -c 2 -a 0 -i 0 -k RTR 
- -t 0.027775684 -s 22 -d -1 -p AODV -e 48 -c 2 -a 0 -i 0 -k RTR
h -t 0.027775684 -s 22 -d -1 -p AODV -e 48 -c 2 -a 0 -i 0 -k RTR
r -t 0.028724053 -s 10 -d -1 -p AODV -e 48 -c 2 -a 0 -i 0 -k RTR
r -t 0.028724171 -s 16 -d -1 -p AODV -e 48 -c 2 -a 0 -i 0 -k RTR
+ -t 0.029203081 -s 10 -d -1 -p AODV -e 48 -c 2 -a 0 -i 0 -k RTR 
- -t 0.029203081 -s 10 -d -1 -p AODV -e 48 -c 2 -a 0 -i 0 -k RTR
h -t 0.029203081 -s 10 -d -1 -p AODV -e 48 -c 2 -a 0 -i 0 -k RTR
+ -t 0.030000000 -s 4 -d -1 -p cbr -e 210 -c 2 -a 0 -i 8 -k AGT 
- -t 0.030000000 -s 4 -d -1 -p cbr -e 210 -c 2 -a 0 -i 8 -k AGT
h -t 0.030000000 -s 4 -d -1 -p cbr -e 210 -c 2 -a 0 -i 8 -k AGT
+ -t 0.030241381 -s 14 -d -1 -p AODV -e 48 -c 2 -a 0 -i 0 -k RTR 
- -t 0.030241381 -s 14 -d -1 -p AODV -e 48 -c 2 -a 0 -i 0 -k RTR
h -t 0.030241381 -s 14 -d -1 -p AODV -e 48 -c 2 -a 0 -i 0 -k RTR
+ -t 0.030382691 -s 2 -d -1 -p AODV -e 48 -c 2 -a 0 -i 0 -k RTR 
- -t 0.030382691 -s 2 -d -1 -p AODV -e 48 -c 2 -a 0 -i 0 -k RTR
h -t 0.030382691 -s 2 -d -1 -p AODV -e 48 -c 2 -a 0 -i 0 -k RTR
r -t 0.030471451 -s 22 -d -1 -p AODV -e 48 -c 2 -a 0 -i 0 -k RTR
r -t 0.030471831 -s 16 -d -1 -p AODV -e 48 -c 2 -a 0 -i 0 -k RTR
r -t 0.031349561 -s 15 -d -1 -p AODV -e 48 -c 2 -a 0 -i 0 -k RTR
r -t 0.031349855 -s 6 -d -1 -p AODV -e 48 -c 2 -a 0 -i 0 -k RTR
r -t 0.031349969 -s 7 -d -1 -p AODV -e 48 -c 2 -a 0 -i 0 -k RTR
r -t 0.031550963 -s 20 -d -1 -p AODV -e 48 -c 2 -a 0 -i 0 -k RTR
+ -t 0.031550963 -s 20 -d 2 -p AODV -e 44 -c 2 -a 0 -i 0 -k RTR 
- -t 0.031550963 -s 20 -d 2 -p AODV -e 44 -c 2 -a 0 -i 0 -k RTR
h -t 0.031550963 -s 20 -d 2 -p AODV -e 44 -c 2 -a 0 -i 0 -k RTR
r -t 0.031550988 -s 9 -d -1 -p AODV -e 48 -c 2 -a 0 -i 0 -k RTR
r -t 0.031551315 -s 23 -d -1 -p AODV -e 48 -c 2 -a 0 -i 0 -k RTR
r -t 0.031551424 -s 3 -d -1 -p AODV -e 48 -c 2 -a 0 -i 0 -k RTR
+ -t 0.032976119 -s 9 -d -1 -p AODV -e 48 -c 2 -a 0 -i 0 -k RTR 
- -t 0.032976119 -s 9 -d -1 -p AODV -e 48 -c 2 -a 0 -i 0 -k RTR
h -t 0.032976119 -s 9 -d -1 -p AODV -e 48 -c 2 -a 0 -i 0 -k RTR
+ -t 0.033750000 -s 4 -d -1 -p cbr -e 210 -c 2 -a 0 -i 9 -k AGT 
- -t 0.033750000 -s 4 -d -1 -p cbr -e 210 -c 2 -a 0 -i 9 -k AGT
h -t 0.033750000 -s 4 -d -1 -p cbr -e 210 -c 2 -a 0 -i 9 -k AGT
+ -t 0.034357631 -s 15 -d -1 -p AODV -e 48 -c 2 -a 0 -i 0 -k RTR 
- -t 0.034357631 -s 15 -d -1 -p AODV -e 48 -c 2 -a 0 -i 0 -k RTR
h -t 0.034357631 -s 15 -d -1 -p AODV -e 48 -c 2 -a 0 -i 0 -k RTR
+ -t 0.034658324 -s 6 -d -1 -p AODV -e 48 -c 2 -a 0 -i 0 -k RTR 
- -t 0.034658324 -s 6 -d -1 -p AODV -e 48 -c 2 -a 0 -i 0 -k RTR
h -t 0.034658324 -s 6 -d -1 -p AODV -e 48 -c 2 -a 0 -i 0 -k RTR
r -t 0.035425810 -s 14 -d -1 -p AODV -e 48 -c 2 -a 0 -i 0 -k RTR
r -t 0.035426167 -s 7 -d -1 -p AODV -e 48 -c 2 -a 0 -i 0 -k RTR
r -t 0.035426269 -s 6 -d -1 -p AODV -e 48 -c 2 -a 0 -i 0 -k RTR
+ -t 0.036175872 -s 2 -d 23 -p AODV -e 44 -c 2 -a 0 -i 0 -k RTR 
- -t 0.036175872 -s 2 -d 23 -p AODV -e 44 -c 2 -a 0 -i 0 -k RTR
h -t 0.036175872 -s 2 -d 23 -p AODV -e 44 -c 2 -a 0 -i 0 -k RTR
r -t 0.036624742 -s 14 -d -1 -p AODV -e 48 -c 2 -a 0 -i 0 -k RTR
r -t 0.036624906 -s 15 -d -1 -p AODV -e 48 -c 2 -a 0 -i 0 -k RTR
r -t 0.036625004 -s 7 -d -1 -p AODV -e 48 -c 2 -a 0 -i 0 -k RTR
+ -t 0.037500000 -s 4 -d -1 -p cbr -e 210 -c 2 -a 0 -i 10 -k AGT 
- -t 0.037500000 -s 4 -d -1 -p cbr -e 210 -c 2 -a 0 -i 10 -k AGT
h -t 0.037500000 -s 4 -d -1 -p cbr -e 210 -c 2 -a 0 -i 10 -k AGT
r -t 0.037628466 -s 2 -d -1 -p AODV -e 48 -c 2 -a 0 -i 0 -k RTR
r -t 0.037628575 -s 23 -d -1 -p AODV -e 48 -c 2 -a 0 -i 0 -k RTR
r -t 0.037628739 -s 20 -d -1 -p AODV -e 48 -c 2 -a 0 -i 0 -k RTR
+ -t 0.039401295 -s 3 -d -1 -p AODV -e 48 -c 2 -a 0 -i 0 -k RTR 
- -t 0.039401295 -s 3 -d -1 -p AODV -e 48 -c 2 -a 0 -i 0 -k RTR
h -t 0.039401295 -s 3 -d -1 -p AODV -e 48 -c 2 -a 0 -i 0 -k RTR
+ -t 0.041250000 -s 4 -d -1 -p cbr -e 210 -c 2 -a 0 -i 11 -k AGT 
- -t 0.041250000 -s 4 -d -1 -p cbr -e 210 -c 2 -a 0 -i 11 -k AGT
h -t 0.041250000 -s 4 -d -1 -p cbr -e 210 -c 2 -a 0 -i 11 -k AGT
+ -t 0.042185833 -s 23 -d 1 -p AODV -e 44 -c 2 -a 0 -i 0 -k RTR 
- -t 0.042185833 -s 23 -d 1 -p AODV -e 44 -c 2 -a 0 -i 0 -k RTR
h -t 0.042185833 -s 23 -d 1 -p AODV -e 44 -c 2 -a 0 -i 0 -k RTR
+ -t 0.045000000 -s 4 -d -1 -p cbr -e 210 -c 2 -a 0 -i 12 -k AGT 
- -t 0.045000000 -s 4 -d -1 -p cbr -e 210 -c 2 -a 0 -i 12 -k AGT
h -t 0.045000000 -s 4 -d -1 -p cbr -e 210 -c 2 -a 0 -i 12 -k AGT
+ -t 0.046937933 -s 1 -d 17 -p AODV -e 44 -c 2 -a 0 -i 0 -k RTR 
- -t 0.046937933 -s 1 -d 17 -p AODV -e 44 -c 2 -a 0 -i 0 -k RTR
h -t 0.046937933 -s 1 -d 17 -p AODV -e 44 -c 2 -a 0 -i 0 -k RTR
+ -t 0.048750000 -s 4 -d -1 -p cbr -e 210 -c 2 -a 0 -i 13 -k AGT 
- -t 0.048750000 -s 4 -d -1 -p cbr -e 210 -c 2 -a 0 -i 13 -k AGT
h -t 0.048750000 -s 4 -d -1 -p cbr -e 210 -c 2 -a 0 -i 13 -k AGT
r -t 0.049833829 -s 0 -d -1 -p AODV -e 48 -c 2 -a 0 -i 0 -k RTR
r -t 0.049834163 -s 20 -d -1 -p AODV -e 48 -c 2 -a 0 -i 0 -k RTR
r -t 0.049834190 -s 2 -d -1 -p AODV -e 48 -c 2 -a 0 -i 0 -k RTR
+ -t 0.052500000 -s 4 -d -1 -p cbr -e 210 -c 2 -a 0 -i 14 -k AGT 
- -t 0.052500000 -s 4 -d -1 -p cbr -e 210 -c 2 -a 0 -i 14 -k AGT
h -t 0.052500000 -s 4 -d -1 -p cbr -e 210 -c 2 -a 0 -i 14 -k AGT
+ -t 0.053673846 -s 17 -d 19 -p AODV -e 44 -c 2 -a 0 -i 0 -k RTR 
- -t 0.053673846 -s 17 -d 19 -p AODV -e 44 -c 2 -a 0 -i 0 -k RTR
h -t 0.053673846 -s 17 -d 19 -p AODV -e 44 -c 2 -a 0 -i 0 -k RTR
+ -t 0.056250000 -s 4 -d -1 -p cbr -e 210 -c 2 -a 0 -i 15 -k AGT 
- -t 0.056250000 -s 4 -d -1 -p cbr -e 210 -c 2 -a 0 -i 15 -k AGT
h -t 0.056250000 -s 4 -d -1 -p cbr -e 210 -c 2 -a 0 -i 15 -k AGT
+ -t 0.056469088 -s 0 -d -1 -p AODV -e 48 -c 2 -a 0 -i 0 -k RTR 
- -t 0.056469088 -s 0 -d -1 -p AODV -e 48 -c 2 -a 0 -i 0 -k RTR
h -t 0.056469088 -s 0 -d -1 -p AODV -e 48 -c 2 -a 0 -i 0 -k RTR
+ -t 0.058486035 -s 19 -d 13 -p AODV -e 44 -c 2 -a 0 -i 0 -k RTR 
- -t 0.058486035 -s 19 -d 13 -p AODV -e 44 -c 2 -a 0 -i 0 -k RTR
h -t 0.058486035 -s 19 -d 13 -p AODV -e 44 -c 2 -a 0 -i 0 -k RTR
+ -t 0.060000000 -s 4 -d -1 -p cbr -e 210 -c 2 -a 0 -i 16 -k AGT 
- -t 0.060000000 -s 4 -d -1 -p cbr -e 210 -c 2 -a 0 -i 16 -k AGT
h -t 0.060000000 -s 4 -d -1 -p cbr -e 210 -c 2 -a 0 -i 16 -k AGT
r -t 0.060328994 -s 3 -d -1 -p AODV -e 48 -c 2 -a 0 -i 0 -k RTR
+ -t 0.063750000 -s 4 -d -1 -p cbr -e 210 -c 2 -a 0 -i 17 -k AGT 
- -t 0.063750000 -s 4 -d -1 -p cbr -e 210 -c 2 -a 0 -i 17 -k AGT
h -t 0.063750000 -s 4 -d -1 -p cbr -e 210 -c 2 -a 0 -i 17 -k AGT
+ -t 0.064528656 -s 13 -d 18 -p AODV -e 44 -c 2 -a 0 -i 0 -k RTR 
- -t 0.064528656 -s 13 -d 18 -p AODV -e 44 -c 2 -a 0 -i 0 -k RTR
h -t 0.064528656 -s 13 -d 18 -p AODV -e 44 -c 2 -a 0 -i 0 -k RTR
+ -t 0.067500000 -s 4 -d -1 -p cbr -e 210 -c 2 -a 0 -i 18 -k AGT 
- -t 0.067500000 -s 4 -d -1 -p cbr -e 210 -c 2 -a 0 -i 18 -k AGT
h -t 0.067500000 -s 4 -d -1 -p cbr -e 210 -c 2 -a 0 -i 18 -k AGT
+ -t 0.069598430 -s 18 -d 4 -p AODV -e 44 -c 2 -a 0 -i 0 -k RTR 
- -t 0.069598430 -s 18 -d 4 -p AODV -e 44 -c 2 -a 0 -i 0 -k RTR
h -t 0.069598430 -s 18 -d 4 -p AODV -e 44 -c 2 -a 0 -i 0 -k RTR
+ -t 0.071250000 -s 4 -d -1 -p cbr -e 210 -c 2 -a 0 -i 19 -k AGT 
- -t 0.071250000 -s 4 -d -1 -p cbr -e 210 -c 2 -a 0 -i 19 -k AGT
h -t 0.071250000 -s 4 -d -1 -p cbr -e 210 -c 2 -a 0 -i 19 -k AGT
+ -t 0.074350350 -s 4 -d 18 -p cbr -e 230 -c 2 -a 0 -i 0 -k RTR 
- -t 0.074350350 -s 4 -d 18 -p cbr -e 230 -c 2 -a 0 -i 0 -k RTR
h -t 0.074350350 -s 4 -d 18 -p cbr -e 230 -c 2 -a 0 -i 0 -k RTR
+ -t 0.075000000 -s 4 -d -1 -p cbr -e 210 -c 2 -a 0 -i 20 -k AGT 
- -t 0.075000000 -s 4 -d -1 -p cbr -e 210 -c 2 -a 0 -i 20 -k AGT
h -t 0.075000000 -s 4 -d -1 -p cbr -e 210 -c 2 -a 0 -i 20 -k AGT
+ -t 0.075000000 -s 4 -d 18 -p cbr -e 230 -c 2 -a 0 -i 20 -k RTR 
- -t 0.075000000 -s 4 -d 18 -p cbr -e 230 -c 2 -a 0 -i 20 -k RTR
h -t 0.075000000 -s 4 -d 18 -p cbr -e 230 -c 2 -a 0 -i 20 -k RTR
+ -t 0.077956458 -s 18 -d 13 -p cbr -e 230 -c 2 -a 0 -i 0 -k RTR 
- -t 0.077956458 -s 18 -d 13 -p cbr -e 230 -c 2 -a 0 -i 0 -k RTR
h -t 0.077956458 -s 18 -d 13 -p cbr -e 230 -c 2 -a 0 -i 0 -k RTR
+ -t 0.078750000 -s 4 -d -1 -p cbr -e 210 -c 2 -a 0 -i 21 -k AGT 
- -t 0.078750000 -s 4 -d -1 -p cbr -e 210 -c 2 -a 0 -i 21 -k AGT
h -t 0.078750000 -s 4 -d -1 -p cbr -e 210 -c 2 -a 0 -i 21 -k AGT
+ -t 0.078750000 -s 4 -d 18 -p cbr -e 230 -c 2 -a 0 -i 21 -k RTR 
- -t 0.078750000 -s 4 -d 18 -p cbr -e 230 -c 2 -a 0 -i 21 -k RTR
h -t 0.078750000 -s 4 -d 18 -p cbr -e 230 -c 2 -a 0 -i 21 -k RTR
+ -t 0.081301647 -s 13 -d 19 -p cbr -e 230 -c 2 -a 0 -i 0 -k RTR 
- -t 0.081301647 -s 13 -d 19 -p cbr -e 230 -c 2 -a 0 -i 0 -k RTR
h -t 0.081301647 -s 13 -d 19 -p cbr -e 230 -c 2 -a 0 -i 0 -k RTR
+ -t 0.082500000 -s 4 -d -1 -p cbr -e 210 -c 2 -a 0 -i 22 -k AGT 
- -t 0.082500000 -s 4 -d -1 -p cbr -e 210 -c 2 -a 0 -i 22 -k AGT
h -t 0.082500000 -s 4 -d -1 -p cbr -e 210 -c 2 -a 0 -i 22 -k AGT
+ -t 0.082500000 -s 4 -d 18 -p cbr -e 230 -c 2 -a 0 -i 22 -k RTR 
- -t 0.082500000 -s 4 -d 18 -p cbr -e 230 -c 2 -a 0 -i 22 -k RTR
h -t 0.082500000 -s 4 -d 18 -p cbr -e 230 -c 2 -a 0 -i 22 -k RTR
+ -t 0.084350350 -s 4 -d 18 -p cbr -e 230 -c 2 -a 0 -i 1 -k RTR 
- -t 0.084350350 -s 4 -d 18 -p cbr -e 230 -c 2 -a 0 -i 1 -k RTR
h -t 0.084350350 -s 4 -d 18 -p cbr -e 230 -c 2 -a 0 -i 1 -k RTR
+ -t 0.084787888 -s 19 -d 17 -p cbr -e 230 -c 2 -a 0 -i 0 -k RTR 
- -t 0.084787888 -s 19 -d 17 -p cbr -e 230 -c 2 -a 0 -i 0 -k RTR
h -t 0.084787888 -s 19 -d 17 -p cbr -e 230 -c 2 -a 0 -i 0 -k RTR
+ -t 0.086250000 -s 4 -d -1 -p cbr -e 210 -c 2 -a 0 -i 23 -k AGT 
- -t 0.086250000 -s 4 -d -1 -p cbr -e 210 -c 2 -a 0 -i 23 -k AGT
h -t 0.086250000 -s 4 -d -1 -p cbr -e 210 -c 2 -a 0 -i 23 -k AGT
+ -t 0.086250000 -s 4 -d 18 -p cbr -e 230 -c 2 -a 0 -i 23 -k RTR 
- -t 0.086250000 -s 4 -d 18 -p cbr -e 230 -c 2 -a 0 -i 23 -k RTR
h -t 0.086250000 -s 4 -d 18 -p cbr -e 230 -c 2 -a 0 -i 23 -k RTR
+ -t 0.088559819 -s 18 -d 13 -p cbr -e 230 -c 2 -a 0 -i 20 -k RTR 
- -t 0.088559819 -s 18 -d 13 -p cbr -e 230 -c 2 -a 0 -i 20 -k RTR
h -t 0.088559819 -s 18 -d 13 -p cbr -e 230 -c 2 -a 0 -i 20 -k RTR
+ -t 0.090000000 -s 4 -d -1 -p cbr -e 210 -c 2 -a 0 -i 24 -k AGT 
- -t 0.090000000 -s 4 -d -1 -p cbr -e 210 -c 2 -a 0 -i 24 -k AGT
h -t 0.090000000 -s 4 -d -1 -p cbr -e 210 -c 2 -a 0 -i 24 -k AGT
+ -t 0.090000000 -s 4 -d 18 -p cbr -e 230 -c 2 -a 0 -i 24 -k RTR 
- -t 0.090000000 -s 4 -d 18 -p cbr -e 230 -c 2 -a 0 -i 24 -k RTR
h -t 0.090000000 -s 4 -d 18 -p cbr -e 230 -c 2 -a 0 -i 24 -k RTR
+ -t 0.091926631 -s 18 -d 13 -p cbr -e 230 -c 2 -a 0 -i 21 -k RTR 
- -t 0.091926631 -s 18 -d 13 -p cbr -e 230 -c 2 -a 0 -i 21 -k RTR
h -t 0.091926631 -s 18 -d 13 -p cbr -e 230 -c 2 -a 0 -i 21 -k RTR
+ -t 0.093750000 -s 4 -d -1 -p cbr -e 210 -c 2 -a 0 -i 25 -k AGT 
- -t 0.093750000 -s 4 -d -1 -p cbr -e 210 -c 2 -a 0 -i 25 -k AGT
h -t 0.093750000 -s 4 -d -1 -p cbr -e 210 -c 2 -a 0 -i 25 -k AGT
+ -t 0.093750000 -s 4 -d 18 -p cbr -e 230 -c 2 -a 0 -i 25 -k RTR 
- -t 0.093750000 -s 4 -d 18 -p cbr -e 230 -c 2 -a 0 -i 25 -k RTR
h -t 0.093750000 -s 4 -d 18 -p cbr -e 230 -c 2 -a 0 -i 25 -k RTR
+ -t 0.094350350 -s 4 -d 18 -p cbr -e 230 -c 2 -a 0 -i 2 -k RTR 
- -t 0.094350350 -s 4 -d 18 -p cbr -e 230 -c 2 -a 0 -i 2 -k RTR
h -t 0.094350350 -s 4 -d 18 -p cbr -e 230 -c 2 -a 0 -i 2 -k RTR
+ -t 0.095293442 -s 18 -d 13 -p cbr -e 230 -c 2 -a 0 -i 22 -k RTR 
- -t 0.095293442 -s 18 -d 13 -p cbr -e 230 -c 2 -a 0 -i 22 -k RTR
h -t 0.095293442 -s 18 -d 13 -p cbr -e 230 -c 2 -a 0 -i 22 -k RTR
+ -t 0.097500000 -s 4 -d -1 -p cbr -e 210 -c 2 -a 0 -i 26 -k AGT 
- -t 0.097500000 -s 4 -d -1 -p cbr -e 210 -c 2 -a 0 -i 26 -k AGT
h -t 0.097500000 -s 4 -d -1 -p cbr -e 210 -c 2 -a 0 -i 26 -k AGT
+ -t 0.097500000 -s 4 -d 18 -p cbr -e 230 -c 2 -a 0 -i 26 -k RTR 
- -t 0.097500000 -s 4 -d 18 -p cbr -e 230 -c 2 -a 0 -i 26 -k RTR
h -t 0.097500000 -s 4 -d 18 -p cbr -e 230 -c 2 -a 0 -i 26 -k RTR
+ -t 0.098700253 -s 18 -d 13 -p cbr -e 230 -c 2 -a 0 -i 1 -k RTR 
- -t 0.098700253 -s 18 -d 13 -p cbr -e 230 -c 2 -a 0 -i 1 -k RTR
h -t 0.098700253 -s 18 -d 13 -p cbr -e 230 -c 2 -a 0 -i 1 -k RTR
m -t 0.10000000000000001 -s 4 -n m -c red -h square
m -t 0.10000000000000001 -s 20 -n m -c orange -h square
n -t 0.10000000000000001 -s 4 -S DLABEL -l "Sender" -L ""
n -t 0.10000000000000001 -s 20 -S DLABEL -l "Reciever" -L ""
+ -t 0.101250000 -s 4 -d -1 -p cbr -e 210 -c 2 -a 0 -i 27 -k AGT 
- -t 0.101250000 -s 4 -d -1 -p cbr -e 210 -c 2 -a 0 -i 27 -k AGT
h -t 0.101250000 -s 4 -d -1 -p cbr -e 210 -c 2 -a 0 -i 27 -k AGT
+ -t 0.101250000 -s 4 -d 18 -p cbr -e 230 -c 2 -a 0 -i 27 -k RTR 
- -t 0.101250000 -s 4 -d 18 -p cbr -e 230 -c 2 -a 0 -i 27 -k RTR
h -t 0.101250000 -s 4 -d 18 -p cbr -e 230 -c 2 -a 0 -i 27 -k RTR
+ -t 0.102265442 -s 13 -d 19 -p cbr -e 230 -c 2 -a 0 -i 20 -k RTR 
- -t 0.102265442 -s 13 -d 19 -p cbr -e 230 -c 2 -a 0 -i 20 -k RTR
h -t 0.102265442 -s 13 -d 19 -p cbr -e 230 -c 2 -a 0 -i 20 -k RTR
+ -t 0.104350350 -s 4 -d 18 -p cbr -e 230 -c 2 -a 0 -i 3 -k RTR 
- -t 0.104350350 -s 4 -d 18 -p cbr -e 230 -c 2 -a 0 -i 3 -k RTR
h -t 0.104350350 -s 4 -d 18 -p cbr -e 230 -c 2 -a 0 -i 3 -k RTR
+ -t 0.105000000 -s 4 -d -1 -p cbr -e 210 -c 2 -a 0 -i 28 -k AGT 
- -t 0.105000000 -s 4 -d -1 -p cbr -e 210 -c 2 -a 0 -i 28 -k AGT
h -t 0.105000000 -s 4 -d -1 -p cbr -e 210 -c 2 -a 0 -i 28 -k AGT
+ -t 0.105000000 -s 4 -d 18 -p cbr -e 230 -c 2 -a 0 -i 28 -k RTR 
- -t 0.105000000 -s 4 -d 18 -p cbr -e 230 -c 2 -a 0 -i 28 -k RTR
h -t 0.105000000 -s 4 -d 18 -p cbr -e 230 -c 2 -a 0 -i 28 -k RTR
+ -t 0.106438649 -s 18 -d 13 -p cbr -e 230 -c 2 -a 0 -i 23 -k RTR 
- -t 0.106438649 -s 18 -d 13 -p cbr -e 230 -c 2 -a 0 -i 23 -k RTR
h -t 0.106438649 -s 18 -d 13 -p cbr -e 230 -c 2 -a 0 -i 23 -k RTR
+ -t 0.108750000 -s 4 -d -1 -p cbr -e 210 -c 2 -a 0 -i 29 -k AGT 
- -t 0.108750000 -s 4 -d -1 -p cbr -e 210 -c 2 -a 0 -i 29 -k AGT
h -t 0.108750000 -s 4 -d -1 -p cbr -e 210 -c 2 -a 0 -i 29 -k AGT
+ -t 0.108750000 -s 4 -d 18 -p cbr -e 230 -c 2 -a 0 -i 29 -k RTR 
- -t 0.108750000 -s 4 -d 18 -p cbr -e 230 -c 2 -a 0 -i 29 -k RTR
h -t 0.108750000 -s 4 -d 18 -p cbr -e 230 -c 2 -a 0 -i 29 -k RTR
+ -t 0.110165460 -s 18 -d 13 -p cbr -e 230 -c 2 -a 0 -i 24 -k RTR 
- -t 0.110165460 -s 18 -d 13 -p cbr -e 230 -c 2 -a 0 -i 24 -k RTR
h -t 0.110165460 -s 18 -d 13 -p cbr -e 230 -c 2 -a 0 -i 24 -k RTR
+ -t 0.112500000 -s 4 -d -1 -p cbr -e 210 -c 2 -a 0 -i 30 -k AGT 
- -t 0.112500000 -s 4 -d -1 -p cbr -e 210 -c 2 -a 0 -i 30 -k AGT
h -t 0.112500000 -s 4 -d -1 -p cbr -e 210 -c 2 -a 0 -i 30 -k AGT
+ -t 0.112500000 -s 4 -d 18 -p cbr -e 230 -c 2 -a 0 -i 30 -k RTR 
- -t 0.112500000 -s 4 -d 18 -p cbr -e 230 -c 2 -a 0 -i 30 -k RTR
h -t 0.112500000 -s 4 -d 18 -p cbr -e 230 -c 2 -a 0 -i 30 -k RTR
+ -t 0.113982092 -s 19 -d 17 -p cbr -e 230 -c 2 -a 0 -i 20 -k RTR 
- -t 0.113982092 -s 19 -d 17 -p cbr -e 230 -c 2 -a 0 -i 20 -k RTR
h -t 0.113982092 -s 19 -d 17 -p cbr -e 230 -c 2 -a 0 -i 20 -k RTR
+ -t 0.114350350 -s 4 -d 18 -p cbr -e 230 -c 2 -a 0 -i 4 -k RTR 
- -t 0.114350350 -s 4 -d 18 -p cbr -e 230 -c 2 -a 0 -i 4 -k RTR
h -t 0.114350350 -s 4 -d 18 -p cbr -e 230 -c 2 -a 0 -i 4 -k RTR
+ -t 0.116250000 -s 4 -d -1 -p cbr -e 210 -c 2 -a 0 -i 31 -k AGT 
- -t 0.116250000 -s 4 -d -1 -p cbr -e 210 -c 2 -a 0 -i 31 -k AGT
h -t 0.116250000 -s 4 -d -1 -p cbr -e 210 -c 2 -a 0 -i 31 -k AGT
+ -t 0.116250000 -s 4 -d 18 -p cbr -e 230 -c 2 -a 0 -i 31 -k RTR 
- -t 0.116250000 -s 4 -d 18 -p cbr -e 230 -c 2 -a 0 -i 31 -k RTR
h -t 0.116250000 -s 4 -d 18 -p cbr -e 230 -c 2 -a 0 -i 31 -k RTR
+ -t 0.117368315 -s 17 -d 1 -p cbr -e 230 -c 2 -a 0 -i 0 -k RTR 
- -t 0.117368315 -s 17 -d 1 -p cbr -e 230 -c 2 -a 0 -i 0 -k RTR
h -t 0.117368315 -s 17 -d 1 -p cbr -e 230 -c 2 -a 0 -i 0 -k RTR
+ -t 0.120000000 -s 4 -d -1 -p cbr -e 210 -c 2 -a 0 -i 32 -k AGT 
- -t 0.120000000 -s 4 -d -1 -p cbr -e 210 -c 2 -a 0 -i 32 -k AGT
h -t 0.120000000 -s 4 -d -1 -p cbr -e 210 -c 2 -a 0 -i 32 -k AGT
+ -t 0.120000000 -s 4 -d 18 -p cbr -e 230 -c 2 -a 0 -i 32 -k RTR 
- -t 0.120000000 -s 4 -d 18 -p cbr -e 230 -c 2 -a 0 -i 32 -k RTR
h -t 0.120000000 -s 4 -d 18 -p cbr -e 230 -c 2 -a 0 -i 32 -k RTR
+ -t 0.120894714 -s 1 -d 23 -p cbr -e 230 -c 2 -a 0 -i 0 -k RTR 
- -t 0.120894714 -s 1 -d 23 -p cbr -e 230 -c 2 -a 0 -i 0 -k RTR
h -t 0.120894714 -s 1 -d 23 -p cbr -e 230 -c 2 -a 0 -i 0 -k RTR
+ -t 0.123750000 -s 4 -d -1 -p cbr -e 210 -c 2 -a 0 -i 33 -k AGT 
- -t 0.123750000 -s 4 -d -1 -p cbr -e 210 -c 2 -a 0 -i 33 -k AGT
h -t 0.123750000 -s 4 -d -1 -p cbr -e 210 -c 2 -a 0 -i 33 -k AGT
+ -t 0.123750000 -s 4 -d 18 -p cbr -e 230 -c 2 -a 0 -i 33 -k RTR 
- -t 0.123750000 -s 4 -d 18 -p cbr -e 230 -c 2 -a 0 -i 33 -k RTR
h -t 0.123750000 -s 4 -d 18 -p cbr -e 230 -c 2 -a 0 -i 33 -k RTR
+ -t 0.124240900 -s 23 -d 2 -p cbr -e 230 -c 2 -a 0 -i 0 -k RTR 
- -t 0.124240900 -s 23 -d 2 -p cbr -e 230 -c 2 -a 0 -i 0 -k RTR
h -t 0.124240900 -s 23 -d 2 -p cbr -e 230 -c 2 -a 0 -i 0 -k RTR
+ -t 0.124350350 -s 4 -d 18 -p cbr -e 230 -c 2 -a 0 -i 5 -k RTR 
- -t 0.124350350 -s 4 -d 18 -p cbr -e 230 -c 2 -a 0 -i 5 -k RTR
h -t 0.124350350 -s 4 -d 18 -p cbr -e 230 -c 2 -a 0 -i 5 -k RTR
+ -t 0.127500000 -s 4 -d -1 -p cbr -e 210 -c 2 -a 0 -i 34 -k AGT 
- -t 0.127500000 -s 4 -d -1 -p cbr -e 210 -c 2 -a 0 -i 34 -k AGT
h -t 0.127500000 -s 4 -d -1 -p cbr -e 210 -c 2 -a 0 -i 34 -k AGT
+ -t 0.127500000 -s 4 -d 18 -p cbr -e 230 -c 2 -a 0 -i 34 -k RTR 
- -t 0.127500000 -s 4 -d 18 -p cbr -e 230 -c 2 -a 0 -i 34 -k RTR
h -t 0.127500000 -s 4 -d 18 -p cbr -e 230 -c 2 -a 0 -i 34 -k RTR
+ -t 0.127810447 -s 13 -d 19 -p cbr -e 230 -c 2 -a 0 -i 21 -k RTR 
- -t 0.127810447 -s 13 -d 19 -p cbr -e 230 -c 2 -a 0 -i 21 -k RTR
h -t 0.127810447 -s 13 -d 19 -p cbr -e 230 -c 2 -a 0 -i 21 -k RTR
+ -t 0.128126772 -s 2 -d 20 -p cbr -e 230 -c 2 -a 0 -i 0 -k RTR 
- -t 0.128126772 -s 2 -d 20 -p cbr -e 230 -c 2 -a 0 -i 0 -k RTR
h -t 0.128126772 -s 2 -d 20 -p cbr -e 230 -c 2 -a 0 -i 0 -k RTR
+ -t 0.131250000 -s 4 -d -1 -p cbr -e 210 -c 2 -a 0 -i 35 -k AGT 
- -t 0.131250000 -s 4 -d -1 -p cbr -e 210 -c 2 -a 0 -i 35 -k AGT
h -t 0.131250000 -s 4 -d -1 -p cbr -e 210 -c 2 -a 0 -i 35 -k AGT
+ -t 0.131250000 -s 4 -d 18 -p cbr -e 230 -c 2 -a 0 -i 35 -k RTR 
- -t 0.131250000 -s 4 -d 18 -p cbr -e 230 -c 2 -a 0 -i 35 -k RTR
h -t 0.131250000 -s 4 -d 18 -p cbr -e 230 -c 2 -a 0 -i 35 -k RTR
+ -t 0.131276688 -s 19 -d 17 -p cbr -e 230 -c 2 -a 0 -i 21 -k RTR 
- -t 0.131276688 -s 19 -d 17 -p cbr -e 230 -c 2 -a 0 -i 21 -k RTR
h -t 0.131276688 -s 19 -d 17 -p cbr -e 230 -c 2 -a 0 -i 21 -k RTR
r -t 0.132051590 -s 20 -d 20 -p cbr -e 230 -c 2 -a 0 -i 0 -k AGT
+ -t 0.134350350 -s 4 -d 18 -p cbr -e 230 -c 2 -a 0 -i 6 -k RTR 
- -t 0.134350350 -s 4 -d 18 -p cbr -e 230 -c 2 -a 0 -i 6 -k RTR
h -t 0.134350350 -s 4 -d 18 -p cbr -e 230 -c 2 -a 0 -i 6 -k RTR
+ -t 0.135000000 -s 4 -d -1 -p cbr -e 210 -c 2 -a 0 -i 36 -k AGT 
- -t 0.135000000 -s 4 -d -1 -p cbr -e 210 -c 2 -a 0 -i 36 -k AGT
h -t 0.135000000 -s 4 -d -1 -p cbr -e 210 -c 2 -a 0 -i 36 -k AGT
+ -t 0.135000000 -s 4 -d 18 -p cbr -e 230 -c 2 -a 0 -i 36 -k RTR 
- -t 0.135000000 -s 4 -d 18 -p cbr -e 230 -c 2 -a 0 -i 36 -k RTR
h -t 0.135000000 -s 4 -d 18 -p cbr -e 230 -c 2 -a 0 -i 36 -k RTR
+ -t 0.135890619 -s 18 -d 13 -p cbr -e 230 -c 2 -a 0 -i 25 -k RTR 
- -t 0.135890619 -s 18 -d 13 -p cbr -e 230 -c 2 -a 0 -i 25 -k RTR
h -t 0.135890619 -s 18 -d 13 -p cbr -e 230 -c 2 -a 0 -i 25 -k RTR
+ -t 0.138750000 -s 4 -d -1 -p cbr -e 210 -c 2 -a 0 -i 37 -k AGT 
- -t 0.138750000 -s 4 -d -1 -p cbr -e 210 -c 2 -a 0 -i 37 -k AGT