s 0.000000000 _4_ AGT  --- 0 cbr 210 [0 0 0 0] [energy 100.000000 ei 0.000 es 0.000 et 0.000 er 0.000] ------- [4:0 20:0 32 0] [0] 0 0
r 0.000000000 _4_ RTR  --- 0 cbr 210 [0 0 0 0] [energy 100.000000 ei 0.000 es 0.000 et 0.000 er 0.000] ------- [4:0 20:0 32 0] [0] 0 0
s 0.000000000 _4_ RTR  --- 0 AODV 48 [0 0 0 0] [energy 100.000000 ei 0.000 es 0.000 et 0.000 er 0.000] ------- [4:255 -1:255 30 0] [0x2 1 1 [20 0] [4 4]] (REQUEST)
N -t 0.000536 -n 18 -e 99.999746
N -t 0.000536 -n 24 -e 99.999746
N -t 0.000536 -n 13 -e 99.999746
N -t 0.000536 -n 5 -e 99.999746
N -t 0.000537 -n 21 -e 99.999746
N -t 0.000537 -n 11 -e 99.999746
N -t 0.000537 -n 16 -e 99.999746
N -t 0.000537 -n 19 -e 99.999746
r 0.001408703 _18_ RTR  --- 0 AODV 48 [0 ffffffff 4 800] [energy 99.999746 ei 0.000 es 0.000 et 0.000 er 0.000] ------- [4:255 -1:255 30 0] [0x2 1 1 [20 0] [4 4]] (REQUEST)
s 0.001550749 _18_ RTR  --- 0 AODV 48 [0 ffffffff 4 800] [energy 99.999746 ei 0.000 es 0.000 et 0.000 er 0.000] ------- [18:255 -1:255 29 0] [0x2 2 1 [20 0] [4 4]] (REQUEST)
N -t 0.001926 -n 24 -e 99.999491
N -t 0.001926 -n 13 -e 99.999491
N -t 0.001926 -n 5 -e 99.999491
N -t 0.001926 -n 4 -e 99.999237
N -t 0.001927 -n 21 -e 99.999491
N -t 0.001927 -n 11 -e 99.999491
N -t 0.001927 -n 19 -e 99.999491
N -t 0.001927 -n 16 -e 99.999491
N -t 0.001927 -n 17 -e 99.999746
N -t 0.001927 -n 0 -e 99.999746
N -t 0.001927 -n 22 -e 99.999746
r 0.002799012 _24_ RTR  --- 0 AODV 48 [0 ffffffff 12 800] [energy 99.999491 ei 0.000 es 0.000 et 0.000 er 0.001] ------- [18:255 -1:255 29 0] [0x2 2 1 [20 0] [4 4]] (REQUEST)
r 0.002799146 _13_ RTR  --- 0 AODV 48 [0 ffffffff 12 800] [energy 99.999491 ei 0.000 es 0.000 et 0.000 er 0.001] ------- [18:255 -1:255 29 0] [0x2 2 1 [20 0] [4 4]] (REQUEST)
r 0.002799182 _5_ RTR  --- 0 AODV 48 [0 ffffffff 12 800] [energy 99.999491 ei 0.000 es 0.000 et 0.000 er 0.001] ------- [18:255 -1:255 29 0] [0x2 2 1 [20 0] [4 4]] (REQUEST)
r 0.002799452 _4_ RTR  --- 0 AODV 48 [0 ffffffff 12 800] [energy 99.999237 ei 0.000 es 0.000 et 0.001 er 0.000] ------- [18:255 -1:255 29 0] [0x2 2 1 [20 0] [4 4]] (REQUEST)
s 0.003750000 _4_ AGT  --- 1 cbr 210 [0 0 0 0] [energy 99.999237 ei 0.000 es 0.000 et 0.001 er 0.000] ------- [4:0 20:0 32 0] [1] 0 0
r 0.003750000 _4_ RTR  --- 1 cbr 210 [0 0 0 0] [energy 99.999237 ei 0.000 es 0.000 et 0.001 er 0.000] ------- [4:0 20:0 32 0] [1] 0 0
s 0.005928763 _13_ RTR  --- 0 AODV 48 [0 ffffffff 12 800] [energy 99.999491 ei 0.000 es 0.000 et 0.000 er 0.001] ------- [13:255 -1:255 28 0] [0x2 3 1 [20 0] [4 4]] (REQUEST)
N -t 0.006244 -n 5 -e 99.999237
N -t 0.006244 -n 24 -e 99.999237
N -t 0.006244 -n 18 -e 99.998982
N -t 0.006244 -n 11 -e 99.999237
N -t 0.006244 -n 21 -e 99.999237
N -t 0.006245 -n 19 -e 99.999237
N -t 0.006245 -n 16 -e 99.999237
N -t 0.006245 -n 17 -e 99.999491
N -t 0.006245 -n 4 -e 99.998982
N -t 0.006245 -n 22 -e 99.999491
N -t 0.006245 -n 8 -e 99.999746
N -t 0.006245 -n 0 -e 99.999491
N -t 0.006245 -n 12 -e 99.999746
N -t 0.006245 -n 10 -e 99.999746
N -t 0.006246 -n 1 -e 99.999746
r 0.007116800 _5_ RTR  --- 0 AODV 48 [0 ffffffff d 800] [energy 99.999237 ei 0.000 es 0.000 et 0.000 er 0.001] ------- [13:255 -1:255 28 0] [0x2 3 1 [20 0] [4 4]] (REQUEST)
r 0.007117034 _24_ RTR  --- 0 AODV 48 [0 ffffffff d 800] [energy 99.999237 ei 0.000 es 0.000 et 0.000 er 0.001] ------- [13:255 -1:255 28 0] [0x2 3 1 [20 0] [4 4]] (REQUEST)
r 0.007117160 _18_ RTR  --- 0 AODV 48 [0 ffffffff d 800] [energy 99.998982 ei 0.000 es 0.000 et 0.001 er 0.001] ------- [13:255 -1:255 28 0] [0x2 3 1 [20 0] [4 4]] (REQUEST)
r 0.007117305 _11_ RTR  --- 0 AODV 48 [0 ffffffff d 800] [energy 99.999237 ei 0.000 es 0.000 et 0.000 er 0.001] ------- [13:255 -1:255 28 0] [0x2 3 1 [20 0] [4 4]] (REQUEST)
r 0.007117459 _21_ RTR  --- 0 AODV 48 [0 ffffffff d 800] [energy 99.999237 ei 0.000 es 0.000 et 0.000 er 0.001] ------- [13:255 -1:255 28 0] [0x2 3 1 [20 0] [4 4]] (REQUEST)
r 0.007117510 _19_ RTR  --- 0 AODV 48 [0 ffffffff d 800] [energy 99.999237 ei 0.000 es 0.000 et 0.000 er 0.001] ------- [13:255 -1:255 28 0] [0x2 3 1 [20 0] [4 4]] (REQUEST)
s 0.007500000 _4_ AGT  --- 2 cbr 210 [0 0 0 0] [energy 99.998982 ei 0.000 es 0.000 et 0.001 er 0.001] ------- [4:0 20:0 32 0] [2] 0 0
r 0.007500000 _4_ RTR  --- 2 cbr 210 [0 0 0 0] [energy 99.998982 ei 0.000 es 0.000 et 0.001 er 0.001] ------- [4:0 20:0 32 0] [2] 0 0
s 0.008758965 _19_ RTR  --- 0 AODV 48 [0 ffffffff d 800] [energy 99.999237 ei 0.000 es 0.000 et 0.000 er 0.001] ------- [19:255 -1:255 27 0] [0x2 4 1 [20 0] [4 4]] (REQUEST)
N -t 0.009374 -n 11 -e 99.998982
N -t 0.009375 -n 16 -e 99.998982
N -t 0.009375 -n 5 -e 99.998982
N -t 0.009375 -n 17 -e 99.999237
N -t 0.009375 -n 13 -e 99.998728
N -t 0.009375 -n 21 -e 99.998982
N -t 0.009375 -n 24 -e 99.998982
N -t 0.009375 -n 12 -e 99.999491
N -t 0.009375 -n 22 -e 99.999237
N -t 0.009375 -n 18 -e 99.998728
N -t 0.009375 -n 8 -e 99.999491
N -t 0.009375 -n 10 -e 99.999491
N -t 0.009375 -n 1 -e 99.999491
N -t 0.009376 -n 7 -e 99.999746
N -t 0.009376 -n 4 -e 99.998728
s 0.010208096 _11_ RTR  --- 0 AODV 48 [0 ffffffff d 800] [energy 99.998982 ei 0.000 es 0.000 et 0.000 er 0.001] ------- [11:255 -1:255 27 0] [0x2 4 1 [20 0] [4 4]] (REQUEST)
r 0.010247181 _11_ RTR  --- 0 AODV 48 [0 ffffffff 13 800] [energy 99.998982 ei 0.000 es 0.000 et 0.000 er 0.001] ------- [19:255 -1:255 27 0] [0x2 4 1 [20 0] [4 4]] (REQUEST)
r 0.010247600 _16_ RTR  --- 0 AODV 48 [0 ffffffff 13 800] [energy 99.998982 ei 0.000 es 0.000 et 0.000 er 0.001] ------- [19:255 -1:255 27 0] [0x2 4 1 [20 0] [4 4]] (REQUEST)
r 0.010247676 _5_ RTR  --- 0 AODV 48 [0 ffffffff 13 800] [energy 99.998982 ei 0.000 es 0.000 et 0.000 er 0.001] ------- [19:255 -1:255 27 0] [0x2 4 1 [20 0] [4 4]] (REQUEST)
r 0.010247706 _17_ RTR  --- 0 AODV 48 [0 ffffffff 13 800] [energy 99.999237 ei 0.000 es 0.000 et 0.000 er 0.001] ------- [19:255 -1:255 27 0] [0x2 4 1 [20 0] [4 4]] (REQUEST)
r 0.010247712 _13_ RTR  --- 0 AODV 48 [0 ffffffff 13 800] [energy 99.998728 ei 0.000 es 0.000 et 0.001 er 0.001] ------- [19:255 -1:255 27 0] [0x2 4 1 [20 0] [4 4]] (REQUEST)
N -t 0.010643 -n 19 -e 99.998474
N -t 0.010644 -n 5 -e 99.998728
N -t 0.010644 -n 13 -e 99.998474
N -t 0.010644 -n 17 -e 99.998982
N -t 0.010644 -n 16 -e 99.998728
N -t 0.010644 -n 21 -e 99.998728
N -t 0.010644 -n 24 -e 99.998728
N -t 0.010644 -n 18 -e 99.998474
N -t 0.010644 -n 12 -e 99.999237
N -t 0.010644 -n 8 -e 99.999237
N -t 0.010644 -n 22 -e 99.998982
N -t 0.010644 -n 10 -e 99.999237
N -t 0.010645 -n 1 -e 99.999237
N -t 0.010645 -n 4 -e 99.998474
N -t 0.010645 -n 0 -e 99.999237
s 0.010790567 _24_ RTR  --- 0 AODV 48 [0 ffffffff 12 800] [energy 99.998728 ei 0.000 es 0.000 et 0.000 er 0.001] ------- [24:255 -1:255 28 0] [0x2 3 1 [20 0] [4 4]] (REQUEST)
s 0.010963943 _5_ RTR  --- 0 AODV 48 [0 ffffffff 12 800] [energy 99.998728 ei 0.000 es 0.000 et 0.000 er 0.001] ------- [5:255 -1:255 28 0] [0x2 3 1 [20 0] [4 4]] (REQUEST)
s 0.011250000 _4_ AGT  --- 3 cbr 210 [0 0 0 0] [energy 99.998474 ei 0.000 es 0.000 et 0.001 er 0.001] ------- [4:0 20:0 32 0] [3] 0 0
r 0.011250000 _4_ RTR  --- 3 cbr 210 [0 0 0 0] [energy 99.998474 ei 0.000 es 0.000 et 0.001 er 0.001] ------- [4:0 20:0 32 0] [3] 0 0
r 0.011516313 _19_ RTR  --- 0 AODV 48 [0 ffffffff b 800] [energy 99.998474 ei 0.000 es 0.000 et 0.001 er 0.001] ------- [11:255 -1:255 27 0] [0x2 4 1 [20 0] [4 4]] (REQUEST)
r 0.011516601 _5_ RTR  --- 0 AODV 48 [0 ffffffff b 800] [energy 99.998728 ei 0.000 es 0.000 et 0.000 er 0.001] ------- [11:255 -1:255 27 0] [0x2 4 1 [20 0] [4 4]] (REQUEST)
r 0.011516638 _13_ RTR  --- 0 AODV 48 [0 ffffffff b 800] [energy 99.998474 ei 0.000 es 0.000 et 0.001 er 0.001] ------- [11:255 -1:255 27 0] [0x2 4 1 [20 0] [4 4]] (REQUEST)
r 0.011516793 _17_ RTR  --- 0 AODV 48 [0 ffffffff b 800] [energy 99.998982 ei 0.000 es 0.000 et 0.000 er 0.001] ------- [11:255 -1:255 27 0] [0x2 4 1 [20 0] [4 4]] (REQUEST)
r 0.011516812 _16_ RTR  --- 0 AODV 48 [0 ffffffff b 800] [energy 99.998728 ei 0.000 es 0.000 et 0.000 er 0.001] ------- [11:255 -1:255 27 0] [0x2 4 1 [20 0] [4 4]] (REQUEST)
r 0.011516817 _21_ RTR  --- 0 AODV 48 [0 ffffffff b 800] [energy 99.998728 ei 0.000 es 0.000 et 0.000 er 0.001] ------- [11:255 -1:255 27 0] [0x2 4 1 [20 0] [4 4]] (REQUEST)
r 0.011516859 _24_ RTR  --- 0 AODV 48 [0 ffffffff b 800] [energy 99.998728 ei 0.000 es 0.000 et 0.000 er 0.001] ------- [11:255 -1:255 27 0] [0x2 4 1 [20 0] [4 4]] (REQUEST)
N -t 0.011882 -n 13 -e 99.998219
N -t 0.011882 -n 24 -e 99.998474
N -t 0.011882 -n 18 -e 99.998219
N -t 0.011882 -n 11 -e 99.998219
N -t 0.011882 -n 21 -e 99.998474
N -t 0.011882 -n 19 -e 99.998219
N -t 0.011883 -n 16 -e 99.998474
N -t 0.011883 -n 17 -e 99.998728
N -t 0.011883 -n 4 -e 99.998219
N -t 0.011883 -n 22 -e 99.998728
N -t 0.011883 -n 8 -e 99.998982
N -t 0.011883 -n 0 -e 99.998982
N -t 0.011883 -n 12 -e 99.998982
N -t 0.011883 -n 10 -e 99.998982
N -t 0.011883 -n 1 -e 99.998982
r 0.012754638 _13_ RTR  --- 0 AODV 48 [0 ffffffff 5 800] [energy 99.998219 ei 0.000 es 0.000 et 0.001 er 0.001] ------- [5:255 -1:255 28 0] [0x2 3 1 [20 0] [4 4]] (REQUEST)
r 0.012754903 _24_ RTR  --- 0 AODV 48 [0 ffffffff 5 800] [energy 99.998474 ei 0.000 es 0.000 et 0.000 er 0.002] ------- [5:255 -1:255 28 0] [0x2 3 1 [20 0] [4 4]] (REQUEST)
r 0.012755034 _18_ RTR  --- 0 AODV 48 [0 ffffffff 5 800] [energy 99.998219 ei 0.000 es 0.000 et 0.001 er 0.001] ------- [5:255 -1:255 28 0] [0x2 3 1 [20 0] [4 4]] (REQUEST)
r 0.012755107 _11_ RTR  --- 0 AODV 48 [0 ffffffff 5 800] [energy 99.998219 ei 0.000 es 0.000 et 0.001 er 0.001] ------- [5:255 -1:255 28 0] [0x2 3 1 [20 0] [4 4]] (REQUEST)
r 0.012755280 _21_ RTR  --- 0 AODV 48 [0 ffffffff 5 800] [energy 99.998474 ei 0.000 es 0.000 et 0.000 er 0.002] ------- [5:255 -1:255 28 0] [0x2 3 1 [20 0] [4 4]] (REQUEST)
r 0.012755313 _19_ RTR  --- 0 AODV 48 [0 ffffffff 5 800] [energy 99.998219 ei 0.000 es 0.000 et 0.001 er 0.001] ------- [5:255 -1:255 28 0] [0x2 3 1 [20 0] [4 4]] (REQUEST)
N -t 0.012920 -n 18 -e 99.997965
N -t 0.012920 -n 13 -e 99.997965
N -t 0.012920 -n 5 -e 99.997965
N -t 0.012921 -n 11 -e 99.997965
N -t 0.012921 -n 4 -e 99.997965
N -t 0.012921 -n 21 -e 99.998219
N -t 0.012921 -n 19 -e 99.997965
N -t 0.012921 -n 16 -e 99.998219
N -t 0.012921 -n 17 -e 99.998474
N -t 0.012921 -n 22 -e 99.998474
N -t 0.012922 -n 0 -e 99.998728
N -t 0.012922 -n 10 -e 99.998728
N -t 0.012922 -n 8 -e 99.998728
r 0.013793166 _18_ RTR  --- 0 AODV 48 [0 ffffffff 18 800] [energy 99.997965 ei 0.000 es 0.000 et 0.001 er 0.002] ------- [24:255 -1:255 28 0] [0x2 3 1 [20 0] [4 4]] (REQUEST)
r 0.013793174 _13_ RTR  --- 0 AODV 48 [0 ffffffff 18 800] [energy 99.997965 ei 0.000 es 0.000 et 0.001 er 0.002] ------- [24:255 -1:255 28 0] [0x2 3 1 [20 0] [4 4]] (REQUEST)
r 0.013793205 _5_ RTR  --- 0 AODV 48 [0 ffffffff 18 800] [energy 99.997965 ei 0.000 es 0.000 et 0.001 er 0.002] ------- [24:255 -1:255 28 0] [0x2 3 1 [20 0] [4 4]] (REQUEST)
r 0.013793666 _11_ RTR  --- 0 AODV 48 [0 ffffffff 18 800] [energy 99.997965 ei 0.000 es 0.000 et 0.001 er 0.002] ------- [24:255 -1:255 28 0] [0x2 3 1 [20 0] [4 4]] (REQUEST)
s 0.014484273 _17_ RTR  --- 0 AODV 48 [0 ffffffff 13 800] [energy 99.998474 ei 0.000 es 0.000 et 0.000 er 0.002] ------- [17:255 -1:255 26 0] [0x2 5 1 [20 0] [4 4]] (REQUEST)
N -t 0.014580 -n 8 -e 99.998474
N -t 0.014580 -n 21 -e 99.997965
N -t 0.014580 -n 11 -e 99.997710
N -t 0.014580 -n 19 -e 99.997710
N -t 0.014580 -n 1 -e 99.998728
N -t 0.014580 -n 12 -e 99.998728
N -t 0.014580 -n 5 -e 99.997710
N -t 0.014580 -n 13 -e 99.997710
N -t 0.014581 -n 24 -e 99.997710
N -t 0.014581 -n 0 -e 99.998474
N -t 0.014581 -n 9 -e 99.999746
N -t 0.014581 -n 18 -e 99.997710
N -t 0.014581 -n 16 -e 99.997965
N -t 0.014581 -n 23 -e 99.999746
N -t 0.014581 -n 7 -e 99.999491
N -t 0.014581 -n 2 -e 99.999746
N -t 0.014581 -n 3 -e 99.999746
N -t 0.014581 -n 20 -e 99.999746
s 0.015000000 _4_ AGT  --- 4 cbr 210 [0 0 0 0] [energy 99.997965 ei 0.000 es 0.000 et 0.001 er 0.002] ------- [4:0 20:0 32 0] [4] 0 0
r 0.015000000 _4_ RTR  --- 4 cbr 210 [0 0 0 0] [energy 99.997965 ei 0.000 es 0.000 et 0.001 er 0.002] ------- [4:0 20:0 32 0] [4] 0 0
r 0.015452786 _8_ RTR  --- 0 AODV 48 [0 ffffffff 11 800] [energy 99.998474 ei 0.000 es 0.000 et 0.000 er 0.002] ------- [17:255 -1:255 26 0] [0x2 5 1 [20 0] [4 4]] (REQUEST)
r 0.015452804 _21_ RTR  --- 0 AODV 48 [0 ffffffff 11 800] [energy 99.997965 ei 0.000 es 0.000 et 0.000 er 0.002] ------- [17:255 -1:255 26 0] [0x2 5 1 [20 0] [4 4]] (REQUEST)
r 0.015452970 _11_ RTR  --- 0 AODV 48 [0 ffffffff 11 800] [energy 99.997710 ei 0.000 es 0.000 et 0.001 er 0.002] ------- [17:255 -1:255 26 0] [0x2 5 1 [20 0] [4 4]] (REQUEST)
r 0.015453014 _19_ RTR  --- 0 AODV 48 [0 ffffffff 11 800] [energy 99.997710 ei 0.000 es 0.000 et 0.001 er 0.002] ------- [17:255 -1:255 26 0] [0x2 5 1 [20 0] [4 4]] (REQUEST)
r 0.015453073 _1_ RTR  --- 0 AODV 48 [0 ffffffff 11 800] [energy 99.998728 ei 0.000 es 0.000 et 0.000 er 0.001] ------- [17:255 -1:255 26 0] [0x2 5 1 [20 0] [4 4]] (REQUEST)
r 0.015453083 _12_ RTR  --- 0 AODV 48 [0 ffffffff 11 800] [energy 99.998728 ei 0.000 es 0.000 et 0.000 er 0.001] ------- [17:255 -1:255 26 0] [0x2 5 1 [20 0] [4 4]] (REQUEST)
s 0.015480694 _21_ RTR  --- 0 AODV 48 [0 ffffffff d 800] [energy 99.997965 ei 0.000 es 0.000 et 0.000 er 0.002] ------- [21:255 -1:255 27 0] [0x2 4 1 [20 0] [4 4]] (REQUEST)
N -t 0.015956 -n 17 -e 99.997710
N -t 0.015956 -n 5 -e 99.997456
N -t 0.015956 -n 13 -e 99.997456
N -t 0.015956 -n 11 -e 99.997456
N -t 0.015957 -n 19 -e 99.997456
N -t 0.015957 -n 18 -e 99.997456
N -t 0.015957 -n 24 -e 99.997456
N -t 0.015957 -n 8 -e 99.998219
N -t 0.015957 -n 0 -e 99.998219
N -t 0.015957 -n 1 -e 99.998474
N -t 0.015957 -n 12 -e 99.998474
N -t 0.015957 -n 3 -e 99.999491
N -t 0.015957 -n 9 -e 99.999491
N -t 0.015957 -n 16 -e 99.997710
N -t 0.015957 -n 4 -e 99.997710
N -t 0.015957 -n 2 -e 99.999491
N -t 0.015957 -n 23 -e 99.999491
N -t 0.015957 -n 20 -e 99.999491
r 0.016829225 _17_ RTR  --- 0 AODV 48 [0 ffffffff 15 800] [energy 99.997710 ei 0.000 es 0.000 et 0.001 er 0.002] ------- [21:255 -1:255 27 0] [0x2 4 1 [20 0] [4 4]] (REQUEST)
r 0.016829373 _5_ RTR  --- 0 AODV 48 [0 ffffffff 15 800] [energy 99.997456 ei 0.000 es 0.000 et 0.001 er 0.002] ------- [21:255 -1:255 27 0] [0x2 4 1 [20 0] [4 4]] (REQUEST)
r 0.016829390 _13_ RTR  --- 0 AODV 48 [0 ffffffff 15 800] [energy 99.997456 ei 0.000 es 0.000 et 0.001 er 0.002] ------- [21:255 -1:255 27 0] [0x2 4 1 [20 0] [4 4]] (REQUEST)
r 0.016829416 _11_ RTR  --- 0 AODV 48 [0 ffffffff 15 800] [energy 99.997456 ei 0.000 es 0.000 et 0.001 er 0.002] ------- [21:255 -1:255 27 0] [0x2 4 1 [20 0] [4 4]] (REQUEST)
s 0.018750000 _4_ AGT  --- 5 cbr 210 [0 0 0 0] [energy 99.997710 ei 0.000 es 0.000 et 0.001 er 0.002] ------- [4:0 20:0 32 0] [5] 0 0
r 0.018750000 _4_ RTR  --- 5 cbr 210 [0 0 0 0] [energy 99.997710 ei 0.000 es 0.000 et 0.001 er 0.002] ------- [4:0 20:0 32 0] [5] 0 0
s 0.018844877 _16_ RTR  --- 0 AODV 48 [0 ffffffff 13 800] [energy 99.997710 ei 0.000 es 0.000 et 0.000 er 0.002] ------- [16:255 -1:255 26 0] [0x2 5 1 [20 0] [4 4]] (REQUEST)
N -t 0.019280 -n 22 -e 99.998219
N -t 0.019281 -n 19 -e 99.997202
N -t 0.019281 -n 11 -e 99.997202
N -t 0.019281 -n 10 -e 99.998474
N -t 0.019281 -n 5 -e 99.997202
N -t 0.019281 -n 13 -e 99.997202
N -t 0.019281 -n 24 -e 99.997202
N -t 0.019281 -n 18 -e 99.997202
N -t 0.019281 -n 17 -e 99.997456
N -t 0.019281 -n 21 -e 99.997202
N -t 0.019281 -n 12 -e 99.998219
N -t 0.019282 -n 8 -e 99.997965
N -t 0.019282 -n 4 -e 99.997456
s 0.020113945 _8_ RTR  --- 0 AODV 48 [0 ffffffff 11 800] [energy 99.997965 ei 0.000 es 0.000 et 0.000 er 0.002] ------- [8:255 -1:255 25 0] [0x2 6 1 [20 0] [4 4]] (REQUEST)
r 0.020153365 _22_ RTR  --- 0 AODV 48 [0 ffffffff 10 800] [energy 99.998219 ei 0.000 es 0.000 et 0.000 er 0.002] ------- [16:255 -1:255 26 0] [0x2 5 1 [20 0] [4 4]] (REQUEST)
r 0.020153513 _19_ RTR  --- 0 AODV 48 [0 ffffffff 10 800] [energy 99.997202 ei 0.000 es 0.000 et 0.001 er 0.002] ------- [16:255 -1:255 26 0] [0x2 5 1 [20 0] [4 4]] (REQUEST)
r 0.020153594 _11_ RTR  --- 0 AODV 48 [0 ffffffff 10 800] [energy 99.997202 ei 0.000 es 0.000 et 0.001 er 0.002] ------- [16:255 -1:255 26 0] [0x2 5 1 [20 0] [4 4]] (REQUEST)
r 0.020153627 _10_ RTR  --- 0 AODV 48 [0 ffffffff 10 800] [energy 99.998474 ei 0.000 es 0.000 et 0.000 er 0.002] ------- [16:255 -1:255 26 0] [0x2 5 1 [20 0] [4 4]] (REQUEST)
N -t 0.020844 -n 1 -e 99.998219
N -t 0.020844 -n 17 -e 99.997202
N -t 0.020844 -n 12 -e 99.997965
N -t 0.020845 -n 21 -e 99.996947
N -t 0.020845 -n 23 -e 99.999237
N -t 0.020845 -n 9 -e 99.999237
N -t 0.020845 -n 19 -e 99.996947
N -t 0.020845 -n 11 -e 99.996947
N -t 0.020845 -n 7 -e 99.999237
N -t 0.020845 -n 2 -e 99.999237
N -t 0.020845 -n 5 -e 99.996947
N -t 0.020845 -n 0 -e 99.997965
N -t 0.020845 -n 13 -e 99.996947
N -t 0.020845 -n 3 -e 99.999237
N -t 0.020845 -n 6 -e 99.999746
N -t 0.020845 -n 20 -e 99.999237
N -t 0.020845 -n 15 -e 99.999746
N -t 0.020845 -n 14 -e 99.999746
N -t 0.020845 -n 16 -e 99.996947
N -t 0.020845 -n 24 -e 99.996947
r 0.021717003 _1_ RTR  --- 0 AODV 48 [0 ffffffff 8 800] [energy 99.998219 ei 0.000 es 0.000 et 0.000 er 0.002] ------- [8:255 -1:255 25 0] [0x2 6 1 [20 0] [4 4]] (REQUEST)
r 0.021717165 _17_ RTR  --- 0 AODV 48 [0 ffffffff 8 800] [energy 99.997202 ei 0.000 es 0.000 et 0.001 er 0.002] ------- [8:255 -1:255 25 0] [0x2 6 1 [20 0] [4 4]] (REQUEST)
r 0.021717321 _12_ RTR  --- 0 AODV 48 [0 ffffffff 8 800] [energy 99.997965 ei 0.000 es 0.000 et 0.000 er 0.002] ------- [8:255 -1:255 25 0] [0x2 6 1 [20 0] [4 4]] (REQUEST)
s 0.022376141 _1_ RTR  --- 0 AODV 48 [0 ffffffff 11 800] [energy 99.998219 ei 0.000 es 0.000 et 0.000 er 0.002] ------- [1:255 -1:255 25 0] [0x2 6 1 [20 0] [4 4]] (REQUEST)
s 0.022500000 _4_ AGT  --- 6 cbr 210 [0 0 0 0] [energy 99.997456 ei 0.000 es 0.000 et 0.001 er 0.002] ------- [4:0 20:0 32 0] [6] 0 0
r 0.022500000 _4_ RTR  --- 6 cbr 210 [0 0 0 0] [energy 99.997456 ei 0.000 es 0.000 et 0.001 er 0.002] ------- [4:0 20:0 32 0] [6] 0 0
N -t 0.022731 -n 8 -e 99.997202
N -t 0.022732 -n 23 -e 99.998982
N -t 0.022732 -n 17 -e 99.996947
N -t 0.022732 -n 9 -e 99.998982
N -t 0.022732 -n 12 -e 99.997710
N -t 0.022732 -n 2 -e 99.998982
N -t 0.022732 -n 21 -e 99.996693
N -t 0.022732 -n 7 -e 99.998982
N -t 0.022733 -n 20 -e 99.998982
N -t 0.022733 -n 0 -e 99.997710
N -t 0.022733 -n 11 -e 99.996693
N -t 0.022733 -n 19 -e 99.996693
N -t 0.022733 -n 3 -e 99.998982
N -t 0.022733 -n 6 -e 99.999491
N -t 0.022733 -n 5 -e 99.996693
N -t 0.022733 -n 14 -e 99.999491
N -t 0.022733 -n 13 -e 99.996693
N -t 0.022733 -n 15 -e 99.999491
r 0.023604492 _8_ RTR  --- 0 AODV 48 [0 ffffffff 1 800] [energy 99.997202 ei 0.000 es 0.000 et 0.001 er 0.002] ------- [1:255 -1:255 25 0] [0x2 6 1 [20 0] [4 4]] (REQUEST)
r 0.023604870 _23_ RTR  --- 0 AODV 48 [0 ffffffff 1 800] [energy 99.998982 ei 0.000 es 0.000 et 0.000 er 0.001] ------- [1:255 -1:255 25 0] [0x2 6 1 [20 0] [4 4]] (REQUEST)
r 0.023604941 _17_ RTR  --- 0 AODV 48 [0 ffffffff 1 800] [energy 99.996947 ei 0.000 es 0.000 et 0.001 er 0.003] ------- [1:255 -1:255 25 0] [0x2 6 1 [20 0] [4 4]] (REQUEST)
s 0.024073756 _12_ RTR  --- 0 AODV 48 [0 ffffffff 11 800] [energy 99.997710 ei 0.000 es 0.000 et 0.000 er 0.002] ------- [12:255 -1:255 25 0] [0x2 6 1 [20 0] [4 4]] (REQUEST)
N -t 0.024669 -n 8 -e 99.996947
N -t 0.024670 -n 7 -e 99.998728
N -t 0.024670 -n 17 -e 99.996693
N -t 0.024670 -n 19 -e 99.996438
N -t 0.024670 -n 1 -e 99.997456
N -t 0.024670 -n 11 -e 99.996438
N -t 0.024670 -n 15 -e 99.999237
N -t 0.024670 -n 21 -e 99.996438
N -t 0.024670 -n 14 -e 99.999237
N -t 0.024670 -n 16 -e 99.996693
N -t 0.024670 -n 6 -e 99.999237
N -t 0.024670 -n 5 -e 99.996438
N -t 0.024670 -n 13 -e 99.996438
N -t 0.024670 -n 23 -e 99.998728
N -t 0.024671 -n 10 -e 99.998219
N -t 0.024671 -n 9 -e 99.998728
N -t 0.024671 -n 22 -e 99.997965
s 0.025478522 _23_ RTR  --- 0 AODV 48 [0 ffffffff 1 800] [energy 99.998728 ei 0.000 es 0.000 et 0.000 er 0.001] ------- [23:255 -1:255 24 0] [0x2 7 1 [20 0] [4 4]] (REQUEST)
r 0.025542424 _8_ RTR  --- 0 AODV 48 [0 ffffffff c 800] [energy 99.996947 ei 0.000 es 0.000 et 0.001 er 0.003] ------- [12:255 -1:255 25 0] [0x2 6 1 [20 0] [4 4]] (REQUEST)
r 0.025542542 _7_ RTR  --- 0 AODV 48 [0 ffffffff c 800] [energy 99.998728 ei 0.000 es 0.000 et 0.000 er 0.001] ------- [12:255 -1:255 25 0] [0x2 6 1 [20 0] [4 4]] (REQUEST)
r 0.025542566 _17_ RTR  --- 0 AODV 48 [0 ffffffff c 800] [energy 99.996693 ei 0.000 es 0.000 et 0.001 er 0.003] ------- [12:255 -1:255 25 0] [0x2 6 1 [20 0] [4 4]] (REQUEST)
N -t 0.026153 -n 9 -e 99.998474
N -t 0.026153 -n 2 -e 99.998728
N -t 0.026153 -n 1 -e 99.997202
N -t 0.026153 -n 20 -e 99.998728
N -t 0.026154 -n 8 -e 99.996693
N -t 0.026154 -n 3 -e 99.998728
N -t 0.026154 -n 0 -e 99.997456
N -t 0.026154 -n 17 -e 99.996438
N -t 0.026154 -n 21 -e 99.996184
N -t 0.026154 -n 12 -e 99.996947
s 0.026250000 _4_ AGT  --- 7 cbr 210 [0 0 0 0] [energy 99.997456 ei 0.000 es 0.000 et 0.001 er 0.002] ------- [4:0 20:0 32 0] [7] 0 0
r 0.026250000 _4_ RTR  --- 7 cbr 210 [0 0 0 0] [energy 99.997456 ei 0.000 es 0.000 et 0.001 er 0.002] ------- [4:0 20:0 32 0] [7] 0 0
s 0.026662856 _7_ RTR  --- 0 AODV 48 [0 ffffffff c 800] [energy 99.998728 ei 0.000 es 0.000 et 0.000 er 0.001] ------- [7:255 -1:255 24 0] [0x2 7 1 [20 0] [4 4]] (REQUEST)
N -t 0.026798 -n 15 -e 99.998982
N -t 0.026798 -n 14 -e 99.998982
N -t 0.026799 -n 6 -e 99.998982
N -t 0.026799 -n 12 -e 99.996754
N -t 0.026799 -n 8 -e 99.996499
N -t 0.026799 -n 1 -e 99.997008
N -t 0.026799 -n 17 -e 99.996245
N -t 0.026800 -n 19 -e 99.996184
r 0.027025845 _9_ RTR  --- 0 AODV 48 [0 ffffffff 17 800] [energy 99.998474 ei 0.000 es 0.000 et 0.000 er 0.002] ------- [23:255 -1:255 24 0] [0x2 7 1 [20 0] [4 4]] (REQUEST)
r 0.027026063 _2_ RTR  --- 0 AODV 48 [0 ffffffff 17 800] [energy 99.998728 ei 0.000 es 0.000 et 0.000 er 0.001] ------- [23:255 -1:255 24 0] [0x2 7 1 [20 0] [4 4]] (REQUEST)
r 0.027671392 _15_ RTR  --- 0 AODV 48 [0 ffffffff 7 800] [energy 99.998982 ei 0.000 es 0.000 et 0.000 er 0.001] ------- [7:255 -1:255 24 0] [0x2 7 1 [20 0] [4 4]] (REQUEST)
r 0.027671443 _14_ RTR  --- 0 AODV 48 [0 ffffffff 7 800] [energy 99.998982 ei 0.000 es 0.000 et 0.000 er 0.001] ------- [7:255 -1:255 24 0] [0x2 7 1 [20 0] [4 4]] (REQUEST)
r 0.027671591 _6_ RTR  --- 0 AODV 48 [0 ffffffff 7 800] [energy 99.998982 ei 0.000 es 0.000 et 0.000 er 0.001] ------- [7:255 -1:255 24 0] [0x2 7 1 [20 0] [4 4]] (REQUEST)
s 0.027775684 _22_ RTR  --- 0 AODV 48 [0 ffffffff 10 800] [energy 99.997965 ei 0.000 es 0.000 et 0.000 er 0.002] ------- [22:255 -1:255 25 0] [0x2 6 1 [20 0] [4 4]] (REQUEST)
N -t 0.027851 -n 10 -e 99.997965
N -t 0.027851 -n 16 -e 99.996438
N -t 0.027852 -n 19 -e 99.995930
N -t 0.027852 -n 11 -e 99.996184
N -t 0.027852 -n 24 -e 99.996693
N -t 0.027852 -n 5 -e 99.996184
N -t 0.027852 -n 13 -e 99.996184
N -t 0.027852 -n 18 -e 99.996947
N -t 0.027852 -n 12 -e 99.996499
r 0.028724053 _10_ RTR  --- 0 AODV 48 [0 ffffffff 16 800] [energy 99.997965 ei 0.000 es 0.000 et 0.000 er 0.002] ------- [22:255 -1:255 25 0] [0x2 6 1 [20 0] [4 4]] (REQUEST)
r 0.028724171 _16_ RTR  --- 0 AODV 48 [0 ffffffff 16 800] [energy 99.996438 ei 0.000 es 0.000 et 0.001 er 0.003] ------- [22:255 -1:255 25 0] [0x2 6 1 [20 0] [4 4]] (REQUEST)
s 0.029203081 _10_ RTR  --- 0 AODV 48 [0 ffffffff 10 800] [energy 99.997965 ei 0.000 es 0.000 et 0.000 er 0.002] ------- [10:255 -1:255 25 0] [0x2 6 1 [20 0] [4 4]] (REQUEST)
N -t 0.029598 -n 22 -e 99.997202
N -t 0.029599 -n 16 -e 99.996184
N -t 0.029599 -n 19 -e 99.995675
N -t 0.029599 -n 11 -e 99.995930
N -t 0.029600 -n 5 -e 99.995930
N -t 0.029600 -n 13 -e 99.995930
N -t 0.029600 -n 24 -e 99.996438
N -t 0.029600 -n 12 -e 99.996245
s 0.030000000 _4_ AGT  --- 8 cbr 210 [0 0 0 0] [energy 99.997456 ei 0.000 es 0.000 et 0.001 er 0.002] ------- [4:0 20:0 32 0] [8] 0 0
r 0.030000000 _4_ RTR  --- 8 cbr 210 [0 0 0 0] [energy 99.997456 ei 0.000 es 0.000 et 0.001 er 0.002] ------- [4:0 20:0 32 0] [8] 0 0
s 0.030241381 _14_ RTR  --- 0 AODV 48 [0 ffffffff 7 800] [energy 99.998982 ei 0.000 es 0.000 et 0.000 er 0.001] ------- [14:255 -1:255 23 0] [0x2 8 1 [20 0] [4 4]] (REQUEST)
s 0.030382691 _2_ RTR  --- 0 AODV 48 [0 ffffffff 17 800] [energy 99.998728 ei 0.000 es 0.000 et 0.000 er 0.001] ------- [2:255 -1:255 23 0] [0x2 8 1 [20 0] [4 4]] (REQUEST)
r 0.030471451 _22_ RTR  --- 0 AODV 48 [0 ffffffff a 800] [energy 99.997202 ei 0.000 es 0.000 et 0.001 er 0.002] ------- [10:255 -1:255 25 0] [0x2 6 1 [20 0] [4 4]] (REQUEST)
r 0.030471831 _16_ RTR  --- 0 AODV 48 [0 ffffffff a 800] [energy 99.996184 ei 0.000 es 0.000 et 0.001 er 0.003] ------- [10:255 -1:255 25 0] [0x2 6 1 [20 0] [4 4]] (REQUEST)
N -t 0.030477 -n 15 -e 99.998728
N -t 0.030477 -n 6 -e 99.998728
N -t 0.030477 -n 7 -e 99.997965
N -t 0.030478 -n 12 -e 99.995991
N -t 0.030478 -n 8 -e 99.996245
N -t 0.030478 -n 1 -e 99.996753
N -t 0.030678 -n 20 -e 99.998474
N -t 0.030678 -n 9 -e 99.998219
N -t 0.030678 -n 23 -e 99.997965
N -t 0.030678 -n 3 -e 99.998474
N -t 0.030679 -n 0 -e 99.997202
N -t 0.030679 -n 1 -e 99.996693
N -t 0.030679 -n 8 -e 99.996184
N -t 0.030679 -n 21 -e 99.995930
N -t 0.030679 -n 17 -e 99.995990
r 0.031349561 _15_ RTR  --- 0 AODV 48 [0 ffffffff e 800] [energy 99.998728 ei 0.000 es 0.000 et 0.000 er 0.001] ------- [14:255 -1:255 23 0] [0x2 8 1 [20 0] [4 4]] (REQUEST)
r 0.031349855 _6_ RTR  --- 0 AODV 48 [0 ffffffff e 800] [energy 99.998728 ei 0.000 es 0.000 et 0.000 er 0.001] ------- [14:255 -1:255 23 0] [0x2 8 1 [20 0] [4 4]] (REQUEST)
r 0.031349969 _7_ RTR  --- 0 AODV 48 [0 ffffffff e 800] [energy 99.997965 ei 0.000 es 0.000 et 0.001 er 0.002] ------- [14:255 -1:255 23 0] [0x2 8 1 [20 0] [4 4]] (REQUEST)
r 0.031550963 _20_ RTR  --- 0 AODV 48 [0 ffffffff 2 800] [energy 99.998474 ei 0.000 es 0.000 et 0.000 er 0.002] ------- [2:255 -1:255 23 0] [0x2 8 1 [20 0] [4 4]] (REQUEST)
s 0.031550963 _20_ RTR  --- 0 AODV 44 [0 0 0 0] [energy 99.998474 ei 0.000 es 0.000 et 0.000 er 0.002] ------- [20:255 4:255 30 2] [0x4 1 [20 4] 10.000000] (REPLY)
r 0.031550988 _9_ RTR  --- 0 AODV 48 [0 ffffffff 2 800] [energy 99.998219 ei 0.000 es 0.000 et 0.000 er 0.002] ------- [2:255 -1:255 23 0] [0x2 8 1 [20 0] [4 4]] (REQUEST)
r 0.031551315 _23_ RTR  --- 0 AODV 48 [0 ffffffff 2 800] [energy 99.997965 ei 0.000 es 0.000 et 0.001 er 0.002] ------- [2:255 -1:255 23 0] [0x2 8 1 [20 0] [4 4]] (REQUEST)
r 0.031551424 _3_ RTR  --- 0 AODV 48 [0 ffffffff 2 800] [energy 99.998474 ei 0.000 es 0.000 et 0.000 er 0.002] ------- [2:255 -1:255 23 0] [0x2 8 1 [20 0] [4 4]] (REQUEST)
N -t 0.031906 -n 2 -e 99.998013
N -t 0.031907 -n 9 -e 99.998013
N -t 0.031907 -n 3 -e 99.998267
N -t 0.031907 -n 23 -e 99.997758
N -t 0.031907 -n 0 -e 99.996995
N -t 0.031907 -n 1 -e 99.996487
N -t 0.031908 -n 8 -e 99.995978
N -t 0.031908 -n 21 -e 99.995723
N -t 0.031908 -n 17 -e 99.995784
N -t 0.032670 -n 20 -e 99.997955
N -t 0.032670 -n 9 -e 99.997907
N -t 0.032670 -n 23 -e 99.997653
N -t 0.032670 -n 3 -e 99.998162
N -t 0.032670 -n 0 -e 99.996890
N -t 0.032670 -n 1 -e 99.996381
N -t 0.032671 -n 8 -e 99.995872
N -t 0.032671 -n 21 -e 99.995618
N -t 0.032671 -n 17 -e 99.995678
s 0.032976119 _9_ RTR  --- 0 AODV 48 [0 ffffffff 17 800] [energy 99.997907 ei 0.000 es 0.000 et 0.000 er 0.002] ------- [9:255 -1:255 23 0] [0x2 8 1 [20 0] [4 4]] (REQUEST)
N -t 0.033032 -n 2 -e 99.997710
N -t 0.033032 -n 9 -e 99.997816
N -t 0.033032 -n 3 -e 99.998070
N -t 0.033032 -n 23 -e 99.997562
N -t 0.033033 -n 0 -e 99.996798
N -t 0.033033 -n 1 -e 99.996290
N -t 0.033033 -n 8 -e 99.995781
N -t 0.033033 -n 21 -e 99.995526
N -t 0.033033 -n 17 -e 99.995587
N -t 0.033346 -n 20 -e 99.997566
N -t 0.033346 -n 9 -e 99.997610
N -t 0.033346 -n 23 -e 99.997355
N -t 0.033347 -n 3 -e 99.997864
N -t 0.033347 -n 0 -e 99.996592
N -t 0.033347 -n 1 -e 99.996084
N -t 0.033347 -n 8 -e 99.995575
N -t 0.033347 -n 21 -e 99.995320
N -t 0.033347 -n 17 -e 99.995381
s 0.033750000 _4_ AGT  --- 9 cbr 210 [0 0 0 0] [energy 99.997456 ei 0.000 es 0.000 et 0.001 er 0.002] ------- [4:0 20:0 32 0] [9] 0 0
r 0.033750000 _4_ RTR  --- 9 cbr 210 [0 0 0 0] [energy 99.997456 ei 0.000 es 0.000 et 0.001 er 0.002] ------- [4:0 20:0 32 0] [9] 0 0
N -t 0.034044 -n 2 -e 99.997206
N -t 0.034045 -n 9 -e 99.997518
N -t 0.034045 -n 3 -e 99.997773
N -t 0.034045 -n 23 -e 99.997264
N -t 0.034045 -n 0 -e 99.996501
N -t 0.034045 -n 1 -e 99.995992
N -t 0.034046 -n 8 -e 99.995484
N -t 0.034046 -n 21 -e 99.995229
N -t 0.034046 -n 17 -e 99.995290
s 0.034357631 _15_ RTR  --- 0 AODV 48 [0 ffffffff 7 800] [energy 99.998728 ei 0.000 es 0.000 et 0.000 er 0.001] ------- [15:255 -1:255 23 0] [0x2 8 1 [20 0] [4 4]] (REQUEST)
N -t 0.034553 -n 14 -e 99.998219
N -t 0.034553 -n 7 -e 99.997710
N -t 0.034553 -n 6 -e 99.998474
N -t 0.034554 -n 12 -e 99.995736
N -t 0.034554 -n 8 -e 99.995229
N -t 0.034554 -n 1 -e 99.995738
s 0.034658324 _6_ RTR  --- 0 AODV 48 [0 ffffffff 7 800] [energy 99.998474 ei 0.000 es 0.000 et 0.000 er 0.002] ------- [6:255 -1:255 23 0] [0x2 8 1 [20 0] [4 4]] (REQUEST)
N -t 0.034658 -n 2 -e 99.997101
N -t 0.034659 -n 9 -e 99.997413
N -t 0.034659 -n 3 -e 99.997667
N -t 0.034659 -n 23 -e 99.997158
N -t 0.034659 -n 0 -e 99.996395
N -t 0.034659 -n 1 -e 99.995738
N -t 0.034660 -n 8 -e 99.995229
N -t 0.034660 -n 21 -e 99.995123
N -t 0.034660 -n 17 -e 99.995184
N -t 0.035021 -n 20 -e 99.997082
N -t 0.035021 -n 9 -e 99.997322
N -t 0.035021 -n 23 -e 99.997067
N -t 0.035021 -n 3 -e 99.997576
N -t 0.035021 -n 0 -e 99.996304
N -t 0.035021 -n 1 -e 99.995738
N -t 0.035022 -n 8 -e 99.995229
N -t 0.035022 -n 21 -e 99.995032
N -t 0.035022 -n 17 -e 99.995093
N -t 0.035335 -n 2 -e 99.996674
N -t 0.035335 -n 9 -e 99.997077
N -t 0.035335 -n 3 -e 99.997331
N -t 0.035335 -n 23 -e 99.996822
N -t 0.035336 -n 0 -e 99.996059
N -t 0.035336 -n 1 -e 99.995513
N -t 0.035336 -n 8 -e 99.995004
N -t 0.035336 -n 21 -e 99.994787
N -t 0.035336 -n 17 -e 99.994848
r 0.035425810 _14_ RTR  --- 0 AODV 48 [0 ffffffff f 800] [energy 99.998219 ei 0.000 es 0.000 et 0.001 er 0.001] ------- [15:255 -1:255 23 0] [0x2 8 1 [20 0] [4 4]] (REQUEST)