+ 0.1 0 1 tcp 40 ------- 1 0.0 2.0 0 0
- 0.1 0 1 tcp 40 ------- 1 0.0 2.0 0 0
r 0.400003 0 1 tcp 40 ------- 1 0.0 2.0 0 0
+ 0.400003 1 2 tcp 40 ------- 1 0.0 2.0 0 0
- 0.400003 1 2 tcp 40 ------- 1 0.0 2.0 0 0
r 0.500323 1 2 tcp 40 ------- 1 0.0 2.0 0 0
+ 0.500323 2 1 ack 40 ------- 1 2.0 0.0 0 1
- 0.500323 2 1 ack 40 ------- 1 2.0 0.0 0 1
r 0.600643 2 1 ack 40 ------- 1 2.0 0.0 0 1
+ 0.600643 1 0 ack 40 ------- 1 2.0 0.0 0 1
- 0.600643 1 0 ack 40 ------- 1 2.0 0.0 0 1
r 0.900646 1 0 ack 40 ------- 1 2.0 0.0 0 1
+ 0.900646 0 1 tcp 540 ------- 1 0.0 2.0 1 2
- 0.900646 0 1 tcp 540 ------- 1 0.0 2.0 1 2
+ 0.900646 0 1 tcp 540 ------- 1 0.0 2.0 2 3
- 0.90069 0 1 tcp 540 ------- 1 0.0 2.0 2 3
r 1.20069 0 1 tcp 540 ------- 1 0.0 2.0 1 2
+ 1.20069 1 2 tcp 540 ------- 1 0.0 2.0 1 2
- 1.20069 1 2 tcp 540 ------- 1 0.0 2.0 1 2
r 1.200733 0 1 tcp 540 ------- 1 0.0 2.0 2 3
+ 1.200733 1 2 tcp 540 ------- 1 0.0 2.0 2 3
- 1.20501 1 2 tcp 540 ------- 1 0.0 2.0 2 3
r 1.30501 1 2 tcp 540 ------- 1 0.0 2.0 1 2
+ 1.30501 2 1 ack 40 ------- 1 2.0 0.0 1 4
- 1.30501 2 1 ack 40 ------- 1 2.0 0.0 1 4
r 1.30933 1 2 tcp 540 ------- 1 0.0 2.0 2 3
+ 1.30933 2 1 ack 40 ------- 1 2.0 0.0 2 5
- 1.30933 2 1 ack 40 ------- 1 2.0 0.0 2 5
r 1.40533 2 1 ack 40 ------- 1 2.0 0.0 1 4
+ 1.40533 1 0 ack 40 ------- 1 2.0 0.0 1 4
- 1.40533 1 0 ack 40 ------- 1 2.0 0.0 1 4
r 1.40965 2 1 ack 40 ------- 1 2.0 0.0 2 5
+ 1.40965 1 0 ack 40 ------- 1 2.0 0.0 2 5
- 1.40965 1 0 ack 40 ------- 1 2.0 0.0 2 5
r 1.705333 1 0 ack 40 ------- 1 2.0 0.0 1 4
+ 1.705333 0 1 tcp 540 ------- 1 0.0 2.0 3 6
- 1.705333 0 1 tcp 540 ------- 1 0.0 2.0 3 6
+ 1.705333 0 1 tcp 540 ------- 1 0.0 2.0 4 7
- 1.705376 0 1 tcp 540 ------- 1 0.0 2.0 4 7
r 1.709653 1 0 ack 40 ------- 1 2.0 0.0 2 5
+ 1.709653 0 1 tcp 540 ------- 1 0.0 2.0 5 8
- 1.709653 0 1 tcp 540 ------- 1 0.0 2.0 5 8
+ 1.709653 0 1 tcp 540 ------- 1 0.0 2.0 6 9
- 1.709696 0 1 tcp 540 ------- 1 0.0 2.0 6 9
r 2.005376 0 1 tcp 540 ------- 1 0.0 2.0 3 6
+ 2.005376 1 2 tcp 540 ------- 1 0.0 2.0 3 6
- 2.005376 1 2 tcp 540 ------- 1 0.0 2.0 3 6
r 2.005419 0 1 tcp 540 ------- 1 0.0 2.0 4 7
+ 2.005419 1 2 tcp 540 ------- 1 0.0 2.0 4 7
- 2.009696 1 2 tcp 540 ------- 1 0.0 2.0 4 7
r 2.009696 0 1 tcp 540 ------- 1 0.0 2.0 5 8
+ 2.009696 1 2 tcp 540 ------- 1 0.0 2.0 5 8
r 2.009739 0 1 tcp 540 ------- 1 0.0 2.0 6 9
+ 2.009739 1 2 tcp 540 ------- 1 0.0 2.0 6 9
d 2.009739 1 2 tcp 540 ------- 1 0.0 2.0 6 9
- 2.014016 1 2 tcp 540 ------- 1 0.0 2.0 5 8
r 2.109696 1 2 tcp 540 ------- 1 0.0 2.0 3 6
+ 2.109696 2 1 ack 40 ------- 1 2.0 0.0 3 10
- 2.109696 2 1 ack 40 ------- 1 2.0 0.0 3 10
r 2.114016 1 2 tcp 540 ------- 1 0.0 2.0 4 7
+ 2.114016 2 1 ack 40 ------- 1 2.0 0.0 4 11
- 2.114016 2 1 ack 40 ------- 1 2.0 0.0 4 11
r 2.118336 1 2 tcp 540 ------- 1 0.0 2.0 5 8
+ 2.118336 2 1 ack 40 ------- 1 2.0 0.0 5 12
- 2.118336 2 1 ack 40 ------- 1 2.0 0.0 5 12
r 2.210016 2 1 ack 40 ------- 1 2.0 0.0 3 10
+ 2.210016 1 0 ack 40 ------- 1 2.0 0.0 3 10
- 2.210016 1 0 ack 40 ------- 1 2.0 0.0 3 10
r 2.214336 2 1 ack 40 ------- 1 2.0 0.0 4 11
+ 2.214336 1 0 ack 40 ------- 1 2.0 0.0 4 11
- 2.214336 1 0 ack 40 ------- 1 2.0 0.0 4 11
r 2.218656 2 1 ack 40 ------- 1 2.0 0.0 5 12
+ 2.218656 1 0 ack 40 ------- 1 2.0 0.0 5 12
- 2.218656 1 0 ack 40 ------- 1 2.0 0.0 5 12
r 2.510019 1 0 ack 40 ------- 1 2.0 0.0 3 10
+ 2.510019 0 1 tcp 540 ------- 1 0.0 2.0 7 13
- 2.510019 0 1 tcp 540 ------- 1 0.0 2.0 7 13
+ 2.510019 0 1 tcp 540 ------- 1 0.0 2.0 8 14
- 2.510062 0 1 tcp 540 ------- 1 0.0 2.0 8 14
r 2.514339 1 0 ack 40 ------- 1 2.0 0.0 4 11
+ 2.514339 0 1 tcp 540 ------- 1 0.0 2.0 9 15
- 2.514339 0 1 tcp 540 ------- 1 0.0 2.0 9 15
+ 2.514339 0 1 tcp 540 ------- 1 0.0 2.0 10 16
- 2.514382 0 1 tcp 540 ------- 1 0.0 2.0 10 16
r 2.518659 1 0 ack 40 ------- 1 2.0 0.0 5 12
+ 2.518659 0 1 tcp 540 ------- 1 0.0 2.0 11 17
- 2.518659 0 1 tcp 540 ------- 1 0.0 2.0 11 17
+ 2.518659 0 1 tcp 540 ------- 1 0.0 2.0 12 18
- 2.518702 0 1 tcp 540 ------- 1 0.0 2.0 12 18
r 2.810062 0 1 tcp 540 ------- 1 0.0 2.0 7 13
+ 2.810062 1 2 tcp 540 ------- 1 0.0 2.0 7 13
- 2.810062 1 2 tcp 540 ------- 1 0.0 2.0 7 13
r 2.810106 0 1 tcp 540 ------- 1 0.0 2.0 8 14
+ 2.810106 1 2 tcp 540 ------- 1 0.0 2.0 8 14
r 2.814382 0 1 tcp 540 ------- 1 0.0 2.0 9 15
+ 2.814382 1 2 tcp 540 ------- 1 0.0 2.0 9 15
d 2.814382 1 2 tcp 540 ------- 1 0.0 2.0 9 15
- 2.814382 1 2 tcp 540 ------- 1 0.0 2.0 8 14
r 2.814426 0 1 tcp 540 ------- 1 0.0 2.0 10 16
+ 2.814426 1 2 tcp 540 ------- 1 0.0 2.0 10 16
r 2.818702 0 1 tcp 540 ------- 1 0.0 2.0 11 17
+ 2.818702 1 2 tcp 540 ------- 1 0.0 2.0 11 17
d 2.818702 1 2 tcp 540 ------- 1 0.0 2.0 11 17
- 2.818702 1 2 tcp 540 ------- 1 0.0 2.0 10 16
r 2.818746 0 1 tcp 540 ------- 1 0.0 2.0 12 18
+ 2.818746 1 2 tcp 540 ------- 1 0.0 2.0 12 18
- 2.823022 1 2 tcp 540 ------- 1 0.0 2.0 12 18
r 2.914382 1 2 tcp 540 ------- 1 0.0 2.0 7 13
+ 2.914382 2 1 ack 40 ------- 1 2.0 0.0 5 19
- 2.914382 2 1 ack 40 ------- 1 2.0 0.0 5 19
r 2.918702 1 2 tcp 540 ------- 1 0.0 2.0 8 14
+ 2.918702 2 1 ack 40 ------- 1 2.0 0.0 5 20
- 2.918702 2 1 ack 40 ------- 1 2.0 0.0 5 20
r 2.923022 1 2 tcp 540 ------- 1 0.0 2.0 10 16
+ 2.923022 2 1 ack 40 ------- 1 2.0 0.0 5 21
- 2.923022 2 1 ack 40 ------- 1 2.0 0.0 5 21
r 2.927342 1 2 tcp 540 ------- 1 0.0 2.0 12 18
+ 2.927342 2 1 ack 40 ------- 1 2.0 0.0 5 22
- 2.927342 2 1 ack 40 ------- 1 2.0 0.0 5 22
r 3.014702 2 1 ack 40 ------- 1 2.0 0.0 5 19
+ 3.014702 1 0 ack 40 ------- 1 2.0 0.0 5 19
- 3.014702 1 0 ack 40 ------- 1 2.0 0.0 5 19
r 3.019022 2 1 ack 40 ------- 1 2.0 0.0 5 20
+ 3.019022 1 0 ack 40 ------- 1 2.0 0.0 5 20
- 3.019022 1 0 ack 40 ------- 1 2.0 0.0 5 20
r 3.023342 2 1 ack 40 ------- 1 2.0 0.0 5 21
+ 3.023342 1 0 ack 40 ------- 1 2.0 0.0 5 21
- 3.023342 1 0 ack 40 ------- 1 2.0 0.0 5 21
r 3.027662 2 1 ack 40 ------- 1 2.0 0.0 5 22
+ 3.027662 1 0 ack 40 ------- 1 2.0 0.0 5 22
- 3.027662 1 0 ack 40 ------- 1 2.0 0.0 5 22
r 3.314706 1 0 ack 40 ------- 1 2.0 0.0 5 19
+ 3.314706 0 1 tcp 540 ------- 1 0.0 2.0 13 23
- 3.314706 0 1 tcp 540 ------- 1 0.0 2.0 13 23
r 3.319026 1 0 ack 40 ------- 1 2.0 0.0 5 20
+ 3.319026 0 1 tcp 540 ------- 1 0.0 2.0 14 24
- 3.319026 0 1 tcp 540 ------- 1 0.0 2.0 14 24
r 3.323346 1 0 ack 40 ------- 1 2.0 0.0 5 21
+ 3.323346 0 1 tcp 540 ---A--- 1 0.0 2.0 6 25
- 3.323346 0 1 tcp 540 ---A--- 1 0.0 2.0 6 25
r 3.327666 1 0 ack 40 ------- 1 2.0 0.0 5 22
r 3.614749 0 1 tcp 540 ------- 1 0.0 2.0 13 23
+ 3.614749 1 2 tcp 540 ------- 1 0.0 2.0 13 23
- 3.614749 1 2 tcp 540 ------- 1 0.0 2.0 13 23
r 3.619069 0 1 tcp 540 ------- 1 0.0 2.0 14 24
+ 3.619069 1 2 tcp 540 ------- 1 0.0 2.0 14 24
- 3.619069 1 2 tcp 540 ------- 1 0.0 2.0 14 24
r 3.623389 0 1 tcp 540 ---A--- 1 0.0 2.0 6 25
+ 3.623389 1 2 tcp 540 ---A--- 1 0.0 2.0 6 25
- 3.623389 1 2 tcp 540 ---A--- 1 0.0 2.0 6 25
r 3.719069 1 2 tcp 540 ------- 1 0.0 2.0 13 23
+ 3.719069 2 1 ack 40 ------- 1 2.0 0.0 5 26
- 3.719069 2 1 ack 40 ------- 1 2.0 0.0 5 26
r 3.723389 1 2 tcp 540 ------- 1 0.0 2.0 14 24
+ 3.723389 2 1 ack 40 ------- 1 2.0 0.0 5 27
- 3.723389 2 1 ack 40 ------- 1 2.0 0.0 5 27
r 3.727709 1 2 tcp 540 ---A--- 1 0.0 2.0 6 25
+ 3.727709 2 1 ack 40 ------- 1 2.0 0.0 8 28
- 3.727709 2 1 ack 40 ------- 1 2.0 0.0 8 28
r 3.819389 2 1 ack 40 ------- 1 2.0 0.0 5 26
+ 3.819389 1 0 ack 40 ------- 1 2.0 0.0 5 26
- 3.819389 1 0 ack 40 ------- 1 2.0 0.0 5 26
r 3.823709 2 1 ack 40 ------- 1 2.0 0.0 5 27
+ 3.823709 1 0 ack 40 ------- 1 2.0 0.0 5 27
- 3.823709 1 0 ack 40 ------- 1 2.0 0.0 5 27
r 3.828029 2 1 ack 40 ------- 1 2.0 0.0 8 28
+ 3.828029 1 0 ack 40 ------- 1 2.0 0.0 8 28
- 3.828029 1 0 ack 40 ------- 1 2.0 0.0 8 28
r 4.119392 1 0 ack 40 ------- 1 2.0 0.0 5 26
r 4.123712 1 0 ack 40 ------- 1 2.0 0.0 5 27
r 4.128032 1 0 ack 40 ------- 1 2.0 0.0 8 28
+ 4.128032 0 1 tcp 540 ------- 1 0.0 2.0 9 29
- 4.128032 0 1 tcp 540 ------- 1 0.0 2.0 9 29
+ 4.128032 0 1 tcp 540 ------- 1 0.0 2.0 10 30
- 4.128075 0 1 tcp 540 ------- 1 0.0 2.0 10 30
r 4.428075 0 1 tcp 540 ------- 1 0.0 2.0 9 29
+ 4.428075 1 2 tcp 540 ------- 1 0.0 2.0 9 29
- 4.428075 1 2 tcp 540 ------- 1 0.0 2.0 9 29
r 4.428118 0 1 tcp 540 ------- 1 0.0 2.0 10 30
+ 4.428118 1 2 tcp 540 ------- 1 0.0 2.0 10 30
- 4.432395 1 2 tcp 540 ------- 1 0.0 2.0 10 30
r 4.532395 1 2 tcp 540 ------- 1 0.0 2.0 9 29
+ 4.532395 2 1 ack 40 ------- 1 2.0 0.0 10 31
- 4.532395 2 1 ack 40 ------- 1 2.0 0.0 10 31
r 4.536715 1 2 tcp 540 ------- 1 0.0 2.0 10 30
+ 4.536715 2 1 ack 40 ------- 1 2.0 0.0 10 32
- 4.536715 2 1 ack 40 ------- 1 2.0 0.0 10 32
r 4.632715 2 1 ack 40 ------- 1 2.0 0.0 10 31
+ 4.632715 1 0 ack 40 ------- 1 2.0 0.0 10 31
- 4.632715 1 0 ack 40 ------- 1 2.0 0.0 10 31
r 4.637035 2 1 ack 40 ------- 1 2.0 0.0 10 32
+ 4.637035 1 0 ack 40 ------- 1 2.0 0.0 10 32
- 4.637035 1 0 ack 40 ------- 1 2.0 0.0 10 32
r 4.932718 1 0 ack 40 ------- 1 2.0 0.0 10 31
+ 4.932718 0 1 tcp 540 ------- 1 0.0 2.0 11 33
- 4.932718 0 1 tcp 540 ------- 1 0.0 2.0 11 33
+ 4.932718 0 1 tcp 540 ------- 1 0.0 2.0 12 34
+ 4.932718 0 1 tcp 540 ------- 1 0.0 2.0 13 35
- 4.932762 0 1 tcp 540 ------- 1 0.0 2.0 12 34
- 4.932805 0 1 tcp 540 ------- 1 0.0 2.0 13 35
r 4.937038 1 0 ack 40 ------- 1 2.0 0.0 10 32
+ 4.937038 0 1 tcp 540 ------- 1 0.0 2.0 14 36
- 4.937038 0 1 tcp 540 ------- 1 0.0 2.0 14 36
