+ 0.1 0 1 cbr 500 ------- 1 0.0 2.0 0 0
- 0.1 0 1 cbr 500 ------- 1 0.0 2.0 0 0
+ 0.101 0 1 cbr 500 ------- 1 0.0 2.0 1 1
- 0.101 0 1 cbr 500 ------- 1 0.0 2.0 1 1
+ 0.102 0 1 cbr 500 ------- 1 0.0 2.0 2 2
- 0.102 0 1 cbr 500 ------- 1 0.0 2.0 2 2
+ 0.103 0 1 cbr 500 ------- 1 0.0 2.0 3 3
- 0.103 0 1 cbr 500 ------- 1 0.0 2.0 3 3
+ 0.104 0 1 cbr 500 ------- 1 0.0 2.0 4 4
- 0.104 0 1 cbr 500 ------- 1 0.0 2.0 4 4
+ 0.105 0 1 cbr 500 ------- 1 0.0 2.0 5 5
- 0.105 0 1 cbr 500 ------- 1 0.0 2.0 5 5
+ 0.106 0 1 cbr 500 ------- 1 0.0 2.0 6 6
- 0.106 0 1 cbr 500 ------- 1 0.0 2.0 6 6
+ 0.107 0 1 cbr 500 ------- 1 0.0 2.0 7 7
- 0.107 0 1 cbr 500 ------- 1 0.0 2.0 7 7
+ 0.108 0 1 cbr 500 ------- 1 0.0 2.0 8 8
- 0.108 0 1 cbr 500 ------- 1 0.0 2.0 8 8
+ 0.109 0 1 cbr 500 ------- 1 0.0 2.0 9 9
- 0.109 0 1 cbr 500 ------- 1 0.0 2.0 9 9
+ 0.11 0 1 cbr 500 ------- 1 0.0 2.0 10 10
- 0.11 0 1 cbr 500 ------- 1 0.0 2.0 10 10
+ 0.111 0 1 cbr 500 ------- 1 0.0 2.0 11 11
- 0.111 0 1 cbr 500 ------- 1 0.0 2.0 11 11
+ 0.112 0 1 cbr 500 ------- 1 0.0 2.0 12 12
- 0.112 0 1 cbr 500 ------- 1 0.0 2.0 12 12
+ 0.113 0 1 cbr 500 ------- 1 0.0 2.0 13 13
- 0.113 0 1 cbr 500 ------- 1 0.0 2.0 13 13
+ 0.114 0 1 cbr 500 ------- 1 0.0 2.0 14 14
- 0.114 0 1 cbr 500 ------- 1 0.0 2.0 14 14
+ 0.115 0 1 cbr 500 ------- 1 0.0 2.0 15 15
- 0.115 0 1 cbr 500 ------- 1 0.0 2.0 15 15
+ 0.116 0 1 cbr 500 ------- 1 0.0 2.0 16 16
- 0.116 0 1 cbr 500 ------- 1 0.0 2.0 16 16
+ 0.117 0 1 cbr 500 ------- 1 0.0 2.0 17 17
- 0.117 0 1 cbr 500 ------- 1 0.0 2.0 17 17
+ 0.118 0 1 cbr 500 ------- 1 0.0 2.0 18 18
- 0.118 0 1 cbr 500 ------- 1 0.0 2.0 18 18
+ 0.119 0 1 cbr 500 ------- 1 0.0 2.0 19 19
- 0.119 0 1 cbr 500 ------- 1 0.0 2.0 19 19
+ 0.12 0 1 cbr 500 ------- 1 0.0 2.0 20 20
- 0.12 0 1 cbr 500 ------- 1 0.0 2.0 20 20
+ 0.121 0 1 cbr 500 ------- 1 0.0 2.0 21 21
- 0.121 0 1 cbr 500 ------- 1 0.0 2.0 21 21
+ 0.122 0 1 cbr 500 ------- 1 0.0 2.0 22 22
- 0.122 0 1 cbr 500 ------- 1 0.0 2.0 22 22
+ 0.123 0 1 cbr 500 ------- 1 0.0 2.0 23 23
- 0.123 0 1 cbr 500 ------- 1 0.0 2.0 23 23
+ 0.124 0 1 cbr 500 ------- 1 0.0 2.0 24 24
- 0.124 0 1 cbr 500 ------- 1 0.0 2.0 24 24
+ 0.125 0 1 cbr 500 ------- 1 0.0 2.0 25 25
- 0.125 0 1 cbr 500 ------- 1 0.0 2.0 25 25
+ 0.126 0 1 cbr 500 ------- 1 0.0 2.0 26 26
- 0.126 0 1 cbr 500 ------- 1 0.0 2.0 26 26
+ 0.127 0 1 cbr 500 ------- 1 0.0 2.0 27 27
- 0.127 0 1 cbr 500 ------- 1 0.0 2.0 27 27
+ 0.128 0 1 cbr 500 ------- 1 0.0 2.0 28 28
- 0.128 0 1 cbr 500 ------- 1 0.0 2.0 28 28
+ 0.129 0 1 cbr 500 ------- 1 0.0 2.0 29 29
- 0.129 0 1 cbr 500 ------- 1 0.0 2.0 29 29
+ 0.13 0 1 cbr 500 ------- 1 0.0 2.0 30 30
- 0.13 0 1 cbr 500 ------- 1 0.0 2.0 30 30
+ 0.131 0 1 cbr 500 ------- 1 0.0 2.0 31 31
- 0.131 0 1 cbr 500 ------- 1 0.0 2.0 31 31
+ 0.132 0 1 cbr 500 ------- 1 0.0 2.0 32 32
- 0.132 0 1 cbr 500 ------- 1 0.0 2.0 32 32
+ 0.133 0 1 cbr 500 ------- 1 0.0 2.0 33 33
- 0.133 0 1 cbr 500 ------- 1 0.0 2.0 33 33
+ 0.134 0 1 cbr 500 ------- 1 0.0 2.0 34 34
- 0.134 0 1 cbr 500 ------- 1 0.0 2.0 34 34
+ 0.135 0 1 cbr 500 ------- 1 0.0 2.0 35 35
- 0.135 0 1 cbr 500 ------- 1 0.0 2.0 35 35
+ 0.136 0 1 cbr 500 ------- 1 0.0 2.0 36 36
- 0.136 0 1 cbr 500 ------- 1 0.0 2.0 36 36
+ 0.137 0 1 cbr 500 ------- 1 0.0 2.0 37 37
- 0.137 0 1 cbr 500 ------- 1 0.0 2.0 37 37
+ 0.138 0 1 cbr 500 ------- 1 0.0 2.0 38 38
- 0.138 0 1 cbr 500 ------- 1 0.0 2.0 38 38
+ 0.139 0 1 cbr 500 ------- 1 0.0 2.0 39 39
- 0.139 0 1 cbr 500 ------- 1 0.0 2.0 39 39
+ 0.14 0 1 cbr 500 ------- 1 0.0 2.0 40 40
- 0.14 0 1 cbr 500 ------- 1 0.0 2.0 40 40
+ 0.141 0 1 cbr 500 ------- 1 0.0 2.0 41 41
- 0.141 0 1 cbr 500 ------- 1 0.0 2.0 41 41
+ 0.142 0 1 cbr 500 ------- 1 0.0 2.0 42 42
- 0.142 0 1 cbr 500 ------- 1 0.0 2.0 42 42
+ 0.143 0 1 cbr 500 ------- 1 0.0 2.0 43 43
- 0.143 0 1 cbr 500 ------- 1 0.0 2.0 43 43
+ 0.144 0 1 cbr 500 ------- 1 0.0 2.0 44 44
- 0.144 0 1 cbr 500 ------- 1 0.0 2.0 44 44
+ 0.145 0 1 cbr 500 ------- 1 0.0 2.0 45 45
- 0.145 0 1 cbr 500 ------- 1 0.0 2.0 45 45
+ 0.146 0 1 cbr 500 ------- 1 0.0 2.0 46 46
- 0.146 0 1 cbr 500 ------- 1 0.0 2.0 46 46
+ 0.147 0 1 cbr 500 ------- 1 0.0 2.0 47 47
- 0.147 0 1 cbr 500 ------- 1 0.0 2.0 47 47
+ 0.148 0 1 cbr 500 ------- 1 0.0 2.0 48 48
- 0.148 0 1 cbr 500 ------- 1 0.0 2.0 48 48
+ 0.149 0 1 cbr 500 ------- 1 0.0 2.0 49 49
- 0.149 0 1 cbr 500 ------- 1 0.0 2.0 49 49
+ 0.15 0 1 cbr 500 ------- 1 0.0 2.0 50 50
- 0.15 0 1 cbr 500 ------- 1 0.0 2.0 50 50
+ 0.151 0 1 cbr 500 ------- 1 0.0 2.0 51 51
- 0.151 0 1 cbr 500 ------- 1 0.0 2.0 51 51
+ 0.152 0 1 cbr 500 ------- 1 0.0 2.0 52 52
- 0.152 0 1 cbr 500 ------- 1 0.0 2.0 52 52
+ 0.153 0 1 cbr 500 ------- 1 0.0 2.0 53 53
- 0.153 0 1 cbr 500 ------- 1 0.0 2.0 53 53
+ 0.154 0 1 cbr 500 ------- 1 0.0 2.0 54 54
- 0.154 0 1 cbr 500 ------- 1 0.0 2.0 54 54
+ 0.155 0 1 cbr 500 ------- 1 0.0 2.0 55 55
- 0.155 0 1 cbr 500 ------- 1 0.0 2.0 55 55
+ 0.156 0 1 cbr 500 ------- 1 0.0 2.0 56 56
- 0.156 0 1 cbr 500 ------- 1 0.0 2.0 56 56
+ 0.157 0 1 cbr 500 ------- 1 0.0 2.0 57 57
- 0.157 0 1 cbr 500 ------- 1 0.0 2.0 57 57
+ 0.158 0 1 cbr 500 ------- 1 0.0 2.0 58 58
- 0.158 0 1 cbr 500 ------- 1 0.0 2.0 58 58
+ 0.159 0 1 cbr 500 ------- 1 0.0 2.0 59 59
- 0.159 0 1 cbr 500 ------- 1 0.0 2.0 59 59
+ 0.16 0 1 cbr 500 ------- 1 0.0 2.0 60 60
- 0.16 0 1 cbr 500 ------- 1 0.0 2.0 60 60
+ 0.161 0 1 cbr 500 ------- 1 0.0 2.0 61 61
- 0.161 0 1 cbr 500 ------- 1 0.0 2.0 61 61
+ 0.162 0 1 cbr 500 ------- 1 0.0 2.0 62 62
- 0.162 0 1 cbr 500 ------- 1 0.0 2.0 62 62
+ 0.163 0 1 cbr 500 ------- 1 0.0 2.0 63 63
- 0.163 0 1 cbr 500 ------- 1 0.0 2.0 63 63
+ 0.164 0 1 cbr 500 ------- 1 0.0 2.0 64 64
- 0.164 0 1 cbr 500 ------- 1 0.0 2.0 64 64
+ 0.165 0 1 cbr 500 ------- 1 0.0 2.0 65 65
- 0.165 0 1 cbr 500 ------- 1 0.0 2.0 65 65
+ 0.166 0 1 cbr 500 ------- 1 0.0 2.0 66 66
- 0.166 0 1 cbr 500 ------- 1 0.0 2.0 66 66
+ 0.167 0 1 cbr 500 ------- 1 0.0 2.0 67 67
- 0.167 0 1 cbr 500 ------- 1 0.0 2.0 67 67
+ 0.168 0 1 cbr 500 ------- 1 0.0 2.0 68 68
- 0.168 0 1 cbr 500 ------- 1 0.0 2.0 68 68
+ 0.169 0 1 cbr 500 ------- 1 0.0 2.0 69 69
- 0.169 0 1 cbr 500 ------- 1 0.0 2.0 69 69
+ 0.17 0 1 cbr 500 ------- 1 0.0 2.0 70 70
- 0.17 0 1 cbr 500 ------- 1 0.0 2.0 70 70
+ 0.171 0 1 cbr 500 ------- 1 0.0 2.0 71 71
- 0.171 0 1 cbr 500 ------- 1 0.0 2.0 71 71
+ 0.172 0 1 cbr 500 ------- 1 0.0 2.0 72 72
- 0.172 0 1 cbr 500 ------- 1 0.0 2.0 72 72
+ 0.173 0 1 cbr 500 ------- 1 0.0 2.0 73 73
- 0.173 0 1 cbr 500 ------- 1 0.0 2.0 73 73
+ 0.174 0 1 cbr 500 ------- 1 0.0 2.0 74 74
- 0.174 0 1 cbr 500 ------- 1 0.0 2.0 74 74
+ 0.175 0 1 cbr 500 ------- 1 0.0 2.0 75 75
- 0.175 0 1 cbr 500 ------- 1 0.0 2.0 75 75
+ 0.176 0 1 cbr 500 ------- 1 0.0 2.0 76 76
- 0.176 0 1 cbr 500 ------- 1 0.0 2.0 76 76
+ 0.177 0 1 cbr 500 ------- 1 0.0 2.0 77 77
- 0.177 0 1 cbr 500 ------- 1 0.0 2.0 77 77
+ 0.178 0 1 cbr 500 ------- 1 0.0 2.0 78 78
- 0.178 0 1 cbr 500 ------- 1 0.0 2.0 78 78
+ 0.179 0 1 cbr 500 ------- 1 0.0 2.0 79 79
- 0.179 0 1 cbr 500 ------- 1 0.0 2.0 79 79
+ 0.18 0 1 cbr 500 ------- 1 0.0 2.0 80 80
- 0.18 0 1 cbr 500 ------- 1 0.0 2.0 80 80
+ 0.181 0 1 cbr 500 ------- 1 0.0 2.0 81 81
- 0.181 0 1 cbr 500 ------- 1 0.0 2.0 81 81
+ 0.182 0 1 cbr 500 ------- 1 0.0 2.0 82 82
- 0.182 0 1 cbr 500 ------- 1 0.0 2.0 82 82
+ 0.183 0 1 cbr 500 ------- 1 0.0 2.0 83 83
- 0.183 0 1 cbr 500 ------- 1 0.0 2.0 83 83
+ 0.184 0 1 cbr 500 ------- 1 0.0 2.0 84 84
- 0.184 0 1 cbr 500 ------- 1 0.0 2.0 84 84
+ 0.185 0 1 cbr 500 ------- 1 0.0 2.0 85 85
- 0.185 0 1 cbr 500 ------- 1 0.0 2.0 85 85
+ 0.186 0 1 cbr 500 ------- 1 0.0 2.0 86 86
- 0.186 0 1 cbr 500 ------- 1 0.0 2.0 86 86
+ 0.187 0 1 cbr 500 ------- 1 0.0 2.0 87 87
- 0.187 0 1 cbr 500 ------- 1 0.0 2.0 87 87
+ 0.188 0 1 cbr 500 ------- 1 0.0 2.0 88 88
- 0.188 0 1 cbr 500 ------- 1 0.0 2.0 88 88
+ 0.189 0 1 cbr 500 ------- 1 0.0 2.0 89 89
- 0.189 0 1 cbr 500 ------- 1 0.0 2.0 89 89
+ 0.19 0 1 cbr 500 ------- 1 0.0 2.0 90 90
- 0.19 0 1 cbr 500 ------- 1 0.0 2.0 90 90
+ 0.191 0 1 cbr 500 ------- 1 0.0 2.0 91 91
- 0.191 0 1 cbr 500 ------- 1 0.0 2.0 91 91
+ 0.192 0 1 cbr 500 ------- 1 0.0 2.0 92 92
- 0.192 0 1 cbr 500 ------- 1 0.0 2.0 92 92
+ 0.193 0 1 cbr 500 ------- 1 0.0 2.0 93 93
- 0.193 0 1 cbr 500 ------- 1 0.0 2.0 93 93
+ 0.194 0 1 cbr 500 ------- 1 0.0 2.0 94 94
- 0.194 0 1 cbr 500 ------- 1 0.0 2.0 94 94
+ 0.195 0 1 cbr 500 ------- 1 0.0 2.0 95 95
- 0.195 0 1 cbr 500 ------- 1 0.0 2.0 95 95
+ 0.196 0 1 cbr 500 ------- 1 0.0 2.0 96 96
- 0.196 0 1 cbr 500 ------- 1 0.0 2.0 96 96
+ 0.197 0 1 cbr 500 ------- 1 0.0 2.0 97 97
- 0.197 0 1 cbr 500 ------- 1 0.0 2.0 97 97
+ 0.198 0 1 cbr 500 ------- 1 0.0 2.0 98 98
- 0.198 0 1 cbr 500 ------- 1 0.0 2.0 98 98
+ 0.199 0 1 cbr 500 ------- 1 0.0 2.0 99 99
- 0.199 0 1 cbr 500 ------- 1 0.0 2.0 99 99
+ 0.2 0 1 cbr 500 ------- 1 0.0 2.0 100 100
- 0.2 0 1 cbr 500 ------- 1 0.0 2.0 100 100
+ 0.201 0 1 cbr 500 ------- 1 0.0 2.0 101 101
- 0.201 0 1 cbr 500 ------- 1 0.0 2.0 101 101
+ 0.202 0 1 cbr 500 ------- 1 0.0 2.0 102 102
- 0.202 0 1 cbr 500 ------- 1 0.0 2.0 102 102
+ 0.203 0 1 cbr 500 ------- 1 0.0 2.0 103 103
- 0.203 0 1 cbr 500 ------- 1 0.0 2.0 103 103
+ 0.204 0 1 cbr 500 ------- 1 0.0 2.0 104 104
- 0.204 0 1 cbr 500 ------- 1 0.0 2.0 104 104
+ 0.205 0 1 cbr 500 ------- 1 0.0 2.0 105 105
- 0.205 0 1 cbr 500 ------- 1 0.0 2.0 105 105
+ 0.206 0 1 cbr 500 ------- 1 0.0 2.0 106 106
- 0.206 0 1 cbr 500 ------- 1 0.0 2.0 106 106
+ 0.207 0 1 cbr 500 ------- 1 0.0 2.0 107 107
- 0.207 0 1 cbr 500 ------- 1 0.0 2.0 107 107
+ 0.208 0 1 cbr 500 ------- 1 0.0 2.0 108 108
- 0.208 0 1 cbr 500 ------- 1 0.0 2.0 108 108
+ 0.209 0 1 cbr 500 ------- 1 0.0 2.0 109 109
- 0.209 0 1 cbr 500 ------- 1 0.0 2.0 109 109
+ 0.21 0 1 cbr 500 ------- 1 0.0 2.0 110 110
- 0.21 0 1 cbr 500 ------- 1 0.0 2.0 110 110
+ 0.211 0 1 cbr 500 ------- 1 0.0 2.0 111 111
- 0.211 0 1 cbr 500 ------- 1 0.0 2.0 111 111
+ 0.212 0 1 cbr 500 ------- 1 0.0 2.0 112 112
- 0.212 0 1 cbr 500 ------- 1 0.0 2.0 112 112
+ 0.213 0 1 cbr 500 ------- 1 0.0 2.0 113 113
- 0.213 0 1 cbr 500 ------- 1 0.0 2.0 113 113
+ 0.214 0 1 cbr 500 ------- 1 0.0 2.0 114 114
- 0.214 0 1 cbr 500 ------- 1 0.0 2.0 114 114
+ 0.215 0 1 cbr 500 ------- 1 0.0 2.0 115 115
- 0.215 0 1 cbr 500 ------- 1 0.0 2.0 115 115
+ 0.216 0 1 cbr 500 ------- 1 0.0 2.0 116 116
- 0.216 0 1 cbr 500 ------- 1 0.0 2.0 116 116
+ 0.217 0 1 cbr 500 ------- 1 0.0 2.0 117 117
- 0.217 0 1 cbr 500 ------- 1 0.0 2.0 117 117
+ 0.218 0 1 cbr 500 ------- 1 0.0 2.0 118 118
- 0.218 0 1 cbr 500 ------- 1 0.0 2.0 118 118
+ 0.219 0 1 cbr 500 ------- 1 0.0 2.0 119 119
- 0.219 0 1 cbr 500 ------- 1 0.0 2.0 119 119
+ 0.22 0 1 cbr 500 ------- 1 0.0 2.0 120 120
- 0.22 0 1 cbr 500 ------- 1 0.0 2.0 120 120
+ 0.221 0 1 cbr 500 ------- 1 0.0 2.0 121 121
- 0.221 0 1 cbr 500 ------- 1 0.0 2.0 121 121
+ 0.222 0 1 cbr 500 ------- 1 0.0 2.0 122 122
- 0.222 0 1 cbr 500 ------- 1 0.0 2.0 122 122
+ 0.223 0 1 cbr 500 ------- 1 0.0 2.0 123 123
- 0.223 0 1 cbr 500 ------- 1 0.0 2.0 123 123
+ 0.224 0 1 cbr 500 ------- 1 0.0 2.0 124 124
- 0.224 0 1 cbr 500 ------- 1 0.0 2.0 124 124
+ 0.225 0 1 cbr 500 ------- 1 0.0 2.0 125 125
- 0.225 0 1 cbr 500 ------- 1 0.0 2.0 125 125
+ 0.226 0 1 cbr 500 ------- 1 0.0 2.0 126 126
- 0.226 0 1 cbr 500 ------- 1 0.0 2.0 126 126
+ 0.227 0 1 cbr 500 ------- 1 0.0 2.0 127 127
- 0.227 0 1 cbr 500 ------- 1 0.0 2.0 127 127
+ 0.228 0 1 cbr 500 ------- 1 0.0 2.0 128 128
- 0.228 0 1 cbr 500 ------- 1 0.0 2.0 128 128
+ 0.229 0 1 cbr 500 ------- 1 0.0 2.0 129 129
- 0.229 0 1 cbr 500 ------- 1 0.0 2.0 129 129
+ 0.23 0 1 cbr 500 ------- 1 0.0 2.0 130 130
- 0.23 0 1 cbr 500 ------- 1 0.0 2.0 130 130
+ 0.231 0 1 cbr 500 ------- 1 0.0 2.0 131 131
- 0.231 0 1 cbr 500 ------- 1 0.0 2.0 131 131
+ 0.232 0 1 cbr 500 ------- 1 0.0 2.0 132 132
- 0.232 0 1 cbr 500 ------- 1 0.0 2.0 132 132
+ 0.233 0 1 cbr 500 ------- 1 0.0 2.0 133 133
- 0.233 0 1 cbr 500 ------- 1 0.0 2.0 133 133
+ 0.234 0 1 cbr 500 ------- 1 0.0 2.0 134 134
- 0.234 0 1 cbr 500 ------- 1 0.0 2.0 134 134
+ 0.235 0 1 cbr 500 ------- 1 0.0 2.0 135 135
- 0.235 0 1 cbr 500 ------- 1 0.0 2.0 135 135
+ 0.236 0 1 cbr 500 ------- 1 0.0 2.0 136 136
- 0.236 0 1 cbr 500 ------- 1 0.0 2.0 136 136
+ 0.237 0 1 cbr 500 ------- 1 0.0 2.0 137 137
- 0.237 0 1 cbr 500 ------- 1 0.0 2.0 137 137
+ 0.238 0 1 cbr 500 ------- 1 0.0 2.0 138 138
- 0.238 0 1 cbr 500 ------- 1 0.0 2.0 138 138
+ 0.239 0 1 cbr 500 ------- 1 0.0 2.0 139 139
- 0.239 0 1 cbr 500 ------- 1 0.0 2.0 139 139
+ 0.24 0 1 cbr 500 ------- 1 0.0 2.0 140 140
- 0.24 0 1 cbr 500 ------- 1 0.0 2.0 140 140
+ 0.241 0 1 cbr 500 ------- 1 0.0 2.0 141 141
- 0.241 0 1 cbr 500 ------- 1 0.0 2.0 141 141
+ 0.242 0 1 cbr 500 ------- 1 0.0 2.0 142 142
- 0.242 0 1 cbr 500 ------- 1 0.0 2.0 142 142
+ 0.243 0 1 cbr 500 ------- 1 0.0 2.0 143 143
- 0.243 0 1 cbr 500 ------- 1 0.0 2.0 143 143
+ 0.244 0 1 cbr 500 ------- 1 0.0 2.0 144 144
- 0.244 0 1 cbr 500 ------- 1 0.0 2.0 144 144
+ 0.245 0 1 cbr 500 ------- 1 0.0 2.0 145 145
- 0.245 0 1 cbr 500 ------- 1 0.0 2.0 145 145
+ 0.246 0 1 cbr 500 ------- 1 0.0 2.0 146 146
- 0.246 0 1 cbr 500 ------- 1 0.0 2.0 146 146
+ 0.247 0 1 cbr 500 ------- 1 0.0 2.0 147 147
- 0.247 0 1 cbr 500 ------- 1 0.0 2.0 147 147
+ 0.248 0 1 cbr 500 ------- 1 0.0 2.0 148 148
- 0.248 0 1 cbr 500 ------- 1 0.0 2.0 148 148
+ 0.249 0 1 cbr 500 ------- 1 0.0 2.0 149 149
- 0.249 0 1 cbr 500 ------- 1 0.0 2.0 149 149
+ 0.25 0 1 cbr 500 ------- 1 0.0 2.0 150 150
- 0.25 0 1 cbr 500 ------- 1 0.0 2.0 150 150
+ 0.251 0 1 cbr 500 ------- 1 0.0 2.0 151 151
- 0.251 0 1 cbr 500 ------- 1 0.0 2.0 151 151
+ 0.252 0 1 cbr 500 ------- 1 0.0 2.0 152 152
- 0.252 0 1 cbr 500 ------- 1 0.0 2.0 152 152
+ 0.253 0 1 cbr 500 ------- 1 0.0 2.0 153 153
- 0.253 0 1 cbr 500 ------- 1 0.0 2.0 153 153
+ 0.254 0 1 cbr 500 ------- 1 0.0 2.0 154 154
- 0.254 0 1 cbr 500 ------- 1 0.0 2.0 154 154
+ 0.255 0 1 cbr 500 ------- 1 0.0 2.0 155 155
- 0.255 0 1 cbr 500 ------- 1 0.0 2.0 155 155
+ 0.256 0 1 cbr 500 ------- 1 0.0 2.0 156 156
- 0.256 0 1 cbr 500 ------- 1 0.0 2.0 156 156
+ 0.257 0 1 cbr 500 ------- 1 0.0 2.0 157 157
- 0.257 0 1 cbr 500 ------- 1 0.0 2.0 157 157
+ 0.258 0 1 cbr 500 ------- 1 0.0 2.0 158 158
- 0.258 0 1 cbr 500 ------- 1 0.0 2.0 158 158
+ 0.259 0 1 cbr 500 ------- 1 0.0 2.0 159 159
- 0.259 0 1 cbr 500 ------- 1 0.0 2.0 159 159
+ 0.26 0 1 cbr 500 ------- 1 0.0 2.0 160 160
- 0.26 0 1 cbr 500 ------- 1 0.0 2.0 160 160
+ 0.261 0 1 cbr 500 ------- 1 0.0 2.0 161 161
- 0.261 0 1 cbr 500 ------- 1 0.0 2.0 161 161
+ 0.262 0 1 cbr 500 ------- 1 0.0 2.0 162 162
- 0.262 0 1 cbr 500 ------- 1 0.0 2.0 162 162
+ 0.263 0 1 cbr 500 ------- 1 0.0 2.0 163 163
- 0.263 0 1 cbr 500 ------- 1 0.0 2.0 163 163
+ 0.264 0 1 cbr 500 ------- 1 0.0 2.0 164 164
- 0.264 0 1 cbr 500 ------- 1 0.0 2.0 164 164
+ 0.265 0 1 cbr 500 ------- 1 0.0 2.0 165 165
- 0.265 0 1 cbr 500 ------- 1 0.0 2.0 165 165
+ 0.266 0 1 cbr 500 ------- 1 0.0 2.0 166 166
- 0.266 0 1 cbr 500 ------- 1 0.0 2.0 166 166
+ 0.267 0 1 cbr 500 ------- 1 0.0 2.0 167 167
- 0.267 0 1 cbr 500 ------- 1 0.0 2.0 167 167
+ 0.268 0 1 cbr 500 ------- 1 0.0 2.0 168 168
- 0.268 0 1 cbr 500 ------- 1 0.0 2.0 168 168
+ 0.269 0 1 cbr 500 ------- 1 0.0 2.0 169 169
- 0.269 0 1 cbr 500 ------- 1 0.0 2.0 169 169
+ 0.27 0 1 cbr 500 ------- 1 0.0 2.0 170 170
- 0.27 0 1 cbr 500 ------- 1 0.0 2.0 170 170
+ 0.271 0 1 cbr 500 ------- 1 0.0 2.0 171 171
- 0.271 0 1 cbr 500 ------- 1 0.0 2.0 171 171
+ 0.272 0 1 cbr 500 ------- 1 0.0 2.0 172 172
- 0.272 0 1 cbr 500 ------- 1 0.0 2.0 172 172
+ 0.273 0 1 cbr 500 ------- 1 0.0 2.0 173 173
- 0.273 0 1 cbr 500 ------- 1 0.0 2.0 173 173
+ 0.274 0 1 cbr 500 ------- 1 0.0 2.0 174 174
- 0.274 0 1 cbr 500 ------- 1 0.0 2.0 174 174
+ 0.275 0 1 cbr 500 ------- 1 0.0 2.0 175 175
- 0.275 0 1 cbr 500 ------- 1 0.0 2.0 175 175
+ 0.276 0 1 cbr 500 ------- 1 0.0 2.0 176 176
- 0.276 0 1 cbr 500 ------- 1 0.0 2.0 176 176
+ 0.277 0 1 cbr 500 ------- 1 0.0 2.0 177 177
- 0.277 0 1 cbr 500 ------- 1 0.0 2.0 177 177
+ 0.278 0 1 cbr 500 ------- 1 0.0 2.0 178 178
- 0.278 0 1 cbr 500 ------- 1 0.0 2.0 178 178
+ 0.279 0 1 cbr 500 ------- 1 0.0 2.0 179 179
- 0.279 0 1 cbr 500 ------- 1 0.0 2.0 179 179
+ 0.28 0 1 cbr 500 ------- 1 0.0 2.0 180 180
- 0.28 0 1 cbr 500 ------- 1 0.0 2.0 180 180
+ 0.281 0 1 cbr 500 ------- 1 0.0 2.0 181 181
- 0.281 0 1 cbr 500 ------- 1 0.0 2.0 181 181
+ 0.282 0 1 cbr 500 ------- 1 0.0 2.0 182 182
- 0.282 0 1 cbr 500 ------- 1 0.0 2.0 182 182
+ 0.283 0 1 cbr 500 ------- 1 0.0 2.0 183 183
- 0.283 0 1 cbr 500 ------- 1 0.0 2.0 183 183
+ 0.284 0 1 cbr 500 ------- 1 0.0 2.0 184 184
- 0.284 0 1 cbr 500 ------- 1 0.0 2.0 184 184
+ 0.285 0 1 cbr 500 ------- 1 0.0 2.0 185 185
- 0.285 0 1 cbr 500 ------- 1 0.0 2.0 185 185
+ 0.286 0 1 cbr 500 ------- 1 0.0 2.0 186 186
- 0.286 0 1 cbr 500 ------- 1 0.0 2.0 186 186
+ 0.287 0 1 cbr 500 ------- 1 0.0 2.0 187 187
- 0.287 0 1 cbr 500 ------- 1 0.0 2.0 187 187
+ 0.288 0 1 cbr 500 ------- 1 0.0 2.0 188 188
- 0.288 0 1 cbr 500 ------- 1 0.0 2.0 188 188
+ 0.289 0 1 cbr 500 ------- 1 0.0 2.0 189 189
- 0.289 0 1 cbr 500 ------- 1 0.0 2.0 189 189
+ 0.29 0 1 cbr 500 ------- 1 0.0 2.0 190 190
- 0.29 0 1 cbr 500 ------- 1 0.0 2.0 190 190
+ 0.291 0 1 cbr 500 ------- 1 0.0 2.0 191 191
- 0.291 0 1 cbr 500 ------- 1 0.0 2.0 191 191
+ 0.292 0 1 cbr 500 ------- 1 0.0 2.0 192 192
- 0.292 0 1 cbr 500 ------- 1 0.0 2.0 192 192
+ 0.293 0 1 cbr 500 ------- 1 0.0 2.0 193 193
- 0.293 0 1 cbr 500 ------- 1 0.0 2.0 193 193
+ 0.294 0 1 cbr 500 ------- 1 0.0 2.0 194 194
- 0.294 0 1 cbr 500 ------- 1 0.0 2.0 194 194
+ 0.295 0 1 cbr 500 ------- 1 0.0 2.0 195 195
- 0.295 0 1 cbr 500 ------- 1 0.0 2.0 195 195
+ 0.296 0 1 cbr 500 ------- 1 0.0 2.0 196 196
- 0.296 0 1 cbr 500 ------- 1 0.0 2.0 196 196
+ 0.297 0 1 cbr 500 ------- 1 0.0 2.0 197 197
- 0.297 0 1 cbr 500 ------- 1 0.0 2.0 197 197
+ 0.298 0 1 cbr 500 ------- 1 0.0 2.0 198 198
- 0.298 0 1 cbr 500 ------- 1 0.0 2.0 198 198
+ 0.299 0 1 cbr 500 ------- 1 0.0 2.0 199 199
- 0.299 0 1 cbr 500 ------- 1 0.0 2.0 199 199
+ 0.3 0 1 cbr 500 ------- 1 0.0 2.0 200 200
- 0.3 0 1 cbr 500 ------- 1 0.0 2.0 200 200
+ 0.301 0 1 cbr 500 ------- 1 0.0 2.0 201 201
- 0.301 0 1 cbr 500 ------- 1 0.0 2.0 201 201
+ 0.302 0 1 cbr 500 ------- 1 0.0 2.0 202 202
- 0.302 0 1 cbr 500 ------- 1 0.0 2.0 202 202
+ 0.303 0 1 cbr 500 ------- 1 0.0 2.0 203 203
- 0.303 0 1 cbr 500 ------- 1 0.0 2.0 203 203
+ 0.304 0 1 cbr 500 ------- 1 0.0 2.0 204 204
- 0.304 0 1 cbr 500 ------- 1 0.0 2.0 204 204
+ 0.305 0 1 cbr 500 ------- 1 0.0 2.0 205 205
- 0.305 0 1 cbr 500 ------- 1 0.0 2.0 205 205
+ 0.306 0 1 cbr 500 ------- 1 0.0 2.0 206 206
- 0.306 0 1 cbr 500 ------- 1 0.0 2.0 206 206
+ 0.307 0 1 cbr 500 ------- 1 0.0 2.0 207 207
- 0.307 0 1 cbr 500 ------- 1 0.0 2.0 207 207
+ 0.308 0 1 cbr 500 ------- 1 0.0 2.0 208 208
- 0.308 0 1 cbr 500 ------- 1 0.0 2.0 208 208
+ 0.309 0 1 cbr 500 ------- 1 0.0 2.0 209 209
- 0.309 0 1 cbr 500 ------- 1 0.0 2.0 209 209
+ 0.31 0 1 cbr 500 ------- 1 0.0 2.0 210 210
- 0.31 0 1 cbr 500 ------- 1 0.0 2.0 210 210
+ 0.311 0 1 cbr 500 ------- 1 0.0 2.0 211 211
- 0.311 0 1 cbr 500 ------- 1 0.0 2.0 211 211
+ 0.312 0 1 cbr 500 ------- 1 0.0 2.0 212 212
- 0.312 0 1 cbr 500 ------- 1 0.0 2.0 212 212
+ 0.313 0 1 cbr 500 ------- 1 0.0 2.0 213 213
- 0.313 0 1 cbr 500 ------- 1 0.0 2.0 213 213
+ 0.314 0 1 cbr 500 ------- 1 0.0 2.0 214 214
- 0.314 0 1 cbr 500 ------- 1 0.0 2.0 214 214
+ 0.315 0 1 cbr 500 ------- 1 0.0 2.0 215 215
- 0.315 0 1 cbr 500 ------- 1 0.0 2.0 215 215
+ 0.316 0 1 cbr 500 ------- 1 0.0 2.0 216 216
- 0.316 0 1 cbr 500 ------- 1 0.0 2.0 216 216
+ 0.317 0 1 cbr 500 ------- 1 0.0 2.0 217 217
- 0.317 0 1 cbr 500 ------- 1 0.0 2.0 217 217
+ 0.318 0 1 cbr 500 ------- 1 0.0 2.0 218 218
- 0.318 0 1 cbr 500 ------- 1 0.0 2.0 218 218
+ 0.319 0 1 cbr 500 ------- 1 0.0 2.0 219 219
- 0.319 0 1 cbr 500 ------- 1 0.0 2.0 219 219
+ 0.32 0 1 cbr 500 ------- 1 0.0 2.0 220 220
- 0.32 0 1 cbr 500 ------- 1 0.0 2.0 220 220
+ 0.321 0 1 cbr 500 ------- 1 0.0 2.0 221 221
- 0.321 0 1 cbr 500 ------- 1 0.0 2.0 221 221
+ 0.322 0 1 cbr 500 ------- 1 0.0 2.0 222 222
- 0.322 0 1 cbr 500 ------- 1 0.0 2.0 222 222
+ 0.323 0 1 cbr 500 ------- 1 0.0 2.0 223 223
- 0.323 0 1 cbr 500 ------- 1 0.0 2.0 223 223
+ 0.324 0 1 cbr 500 ------- 1 0.0 2.0 224 224
- 0.324 0 1 cbr 500 ------- 1 0.0 2.0 224 224
+ 0.325 0 1 cbr 500 ------- 1 0.0 2.0 225 225
- 0.325 0 1 cbr 500 ------- 1 0.0 2.0 225 225
+ 0.326 0 1 cbr 500 ------- 1 0.0 2.0 226 226
- 0.326 0 1 cbr 500 ------- 1 0.0 2.0 226 226
+ 0.327 0 1 cbr 500 ------- 1 0.0 2.0 227 227
- 0.327 0 1 cbr 500 ------- 1 0.0 2.0 227 227
+ 0.328 0 1 cbr 500 ------- 1 0.0 2.0 228 228
- 0.328 0 1 cbr 500 ------- 1 0.0 2.0 228 228
+ 0.329 0 1 cbr 500 ------- 1 0.0 2.0 229 229
- 0.329 0 1 cbr 500 ------- 1 0.0 2.0 229 229
+ 0.33 0 1 cbr 500 ------- 1 0.0 2.0 230 230
- 0.33 0 1 cbr 500 ------- 1 0.0 2.0 230 230
+ 0.331 0 1 cbr 500 ------- 1 0.0 2.0 231 231
- 0.331 0 1 cbr 500 ------- 1 0.0 2.0 231 231
+ 0.332 0 1 cbr 500 ------- 1 0.0 2.0 232 232
- 0.332 0 1 cbr 500 ------- 1 0.0 2.0 232 232
+ 0.333 0 1 cbr 500 ------- 1 0.0 2.0 233 233
- 0.333 0 1 cbr 500 ------- 1 0.0 2.0 233 233
+ 0.334 0 1 cbr 500 ------- 1 0.0 2.0 234 234
- 0.334 0 1 cbr 500 ------- 1 0.0 2.0 234 234
+ 0.335 0 1 cbr 500 ------- 1 0.0 2.0 235 235
- 0.335 0 1 cbr 500 ------- 1 0.0 2.0 235 235
+ 0.336 0 1 cbr 500 ------- 1 0.0 2.0 236 236
- 0.336 0 1 cbr 500 ------- 1 0.0 2.0 236 236
+ 0.337 0 1 cbr 500 ------- 1 0.0 2.0 237 237
- 0.337 0 1 cbr 500 ------- 1 0.0 2.0 237 237
+ 0.338 0 1 cbr 500 ------- 1 0.0 2.0 238 238
- 0.338 0 1 cbr 500 ------- 1 0.0 2.0 238 238
+ 0.339 0 1 cbr 500 ------- 1 0.0 2.0 239 239
- 0.339 0 1 cbr 500 ------- 1 0.0 2.0 239 239
+ 0.34 0 1 cbr 500 ------- 1 0.0 2.0 240 240
- 0.34 0 1 cbr 500 ------- 1 0.0 2.0 240 240
+ 0.341 0 1 cbr 500 ------- 1 0.0 2.0 241 241
- 0.341 0 1 cbr 500 ------- 1 0.0 2.0 241 241
+ 0.342 0 1 cbr 500 ------- 1 0.0 2.0 242 242
- 0.342 0 1 cbr 500 ------- 1 0.0 2.0 242 242
+ 0.343 0 1 cbr 500 ------- 1 0.0 2.0 243 243
- 0.343 0 1 cbr 500 ------- 1 0.0 2.0 243 243
+ 0.344 0 1 cbr 500 ------- 1 0.0 2.0 244 244
- 0.344 0 1 cbr 500 ------- 1 0.0 2.0 244 244
+ 0.345 0 1 cbr 500 ------- 1 0.0 2.0 245 245
- 0.345 0 1 cbr 500 ------- 1 0.0 2.0 245 245
+ 0.346 0 1 cbr 500 ------- 1 0.0 2.0 246 246
- 0.346 0 1 cbr 500 ------- 1 0.0 2.0 246 246
+ 0.347 0 1 cbr 500 ------- 1 0.0 2.0 247 247
- 0.347 0 1 cbr 500 ------- 1 0.0 2.0 247 247
+ 0.348 0 1 cbr 500 ------- 1 0.0 2.0 248 248
- 0.348 0 1 cbr 500 ------- 1 0.0 2.0 248 248
+ 0.349 0 1 cbr 500 ------- 1 0.0 2.0 249 249
- 0.349 0 1 cbr 500 ------- 1 0.0 2.0 249 249
+ 0.35 0 1 cbr 500 ------- 1 0.0 2.0 250 250
- 0.35 0 1 cbr 500 ------- 1 0.0 2.0 250 250
+ 0.351 0 1 cbr 500 ------- 1 0.0 2.0 251 251
- 0.351 0 1 cbr 500 ------- 1 0.0 2.0 251 251
+ 0.352 0 1 cbr 500 ------- 1 0.0 2.0 252 252
- 0.352 0 1 cbr 500 ------- 1 0.0 2.0 252 252
+ 0.353 0 1 cbr 500 ------- 1 0.0 2.0 253 253
- 0.353 0 1 cbr 500 ------- 1 0.0 2.0 253 253
+ 0.354 0 1 cbr 500 ------- 1 0.0 2.0 254 254
- 0.354 0 1 cbr 500 ------- 1 0.0 2.0 254 254
+ 0.355 0 1 cbr 500 ------- 1 0.0 2.0 255 255
- 0.355 0 1 cbr 500 ------- 1 0.0 2.0 255 255
+ 0.356 0 1 cbr 500 ------- 1 0.0 2.0 256 256
- 0.356 0 1 cbr 500 ------- 1 0.0 2.0 256 256
+ 0.357 0 1 cbr 500 ------- 1 0.0 2.0 257 257
- 0.357 0 1 cbr 500 ------- 1 0.0 2.0 257 257
+ 0.358 0 1 cbr 500 ------- 1 0.0 2.0 258 258
- 0.358 0 1 cbr 500 ------- 1 0.0 2.0 258 258
+ 0.359 0 1 cbr 500 ------- 1 0.0 2.0 259 259
- 0.359 0 1 cbr 500 ------- 1 0.0 2.0 259 259
+ 0.36 0 1 cbr 500 ------- 1 0.0 2.0 260 260
- 0.36 0 1 cbr 500 ------- 1 0.0 2.0 260 260
+ 0.361 0 1 cbr 500 ------- 1 0.0 2.0 261 261
- 0.361 0 1 cbr 500 ------- 1 0.0 2.0 261 261
+ 0.362 0 1 cbr 500 ------- 1 0.0 2.0 262 262
- 0.362 0 1 cbr 500 ------- 1 0.0 2.0 262 262
+ 0.363 0 1 cbr 500 ------- 1 0.0 2.0 263 263
- 0.363 0 1 cbr 500 ------- 1 0.0 2.0 263 263
+ 0.364 0 1 cbr 500 ------- 1 0.0 2.0 264 264
- 0.364 0 1 cbr 500 ------- 1 0.0 2.0 264 264
+ 0.365 0 1 cbr 500 ------- 1 0.0 2.0 265 265
- 0.365 0 1 cbr 500 ------- 1 0.0 2.0 265 265
+ 0.366 0 1 cbr 500 ------- 1 0.0 2.0 266 266
- 0.366 0 1 cbr 500 ------- 1 0.0 2.0 266 266
+ 0.367 0 1 cbr 500 ------- 1 0.0 2.0 267 267
- 0.367 0 1 cbr 500 ------- 1 0.0 2.0 267 267
+ 0.368 0 1 cbr 500 ------- 1 0.0 2.0 268 268
- 0.368 0 1 cbr 500 ------- 1 0.0 2.0 268 268
+ 0.369 0 1 cbr 500 ------- 1 0.0 2.0 269 269
- 0.369 0 1 cbr 500 ------- 1 0.0 2.0 269 269
+ 0.37 0 1 cbr 500 ------- 1 0.0 2.0 270 270
- 0.37 0 1 cbr 500 ------- 1 0.0 2.0 270 270
+ 0.371 0 1 cbr 500 ------- 1 0.0 2.0 271 271
- 0.371 0 1 cbr 500 ------- 1 0.0 2.0 271 271
+ 0.372 0 1 cbr 500 ------- 1 0.0 2.0 272 272
- 0.372 0 1 cbr 500 ------- 1 0.0 2.0 272 272
+ 0.373 0 1 cbr 500 ------- 1 0.0 2.0 273 273
- 0.373 0 1 cbr 500 ------- 1 0.0 2.0 273 273
+ 0.374 0 1 cbr 500 ------- 1 0.0 2.0 274 274
- 0.374 0 1 cbr 500 ------- 1 0.0 2.0 274 274
+ 0.375 0 1 cbr 500 ------- 1 0.0 2.0 275 275
- 0.375 0 1 cbr 500 ------- 1 0.0 2.0 275 275
+ 0.376 0 1 cbr 500 ------- 1 0.0 2.0 276 276
- 0.376 0 1 cbr 500 ------- 1 0.0 2.0 276 276
+ 0.377 0 1 cbr 500 ------- 1 0.0 2.0 277 277
- 0.377 0 1 cbr 500 ------- 1 0.0 2.0 277 277
+ 0.378 0 1 cbr 500 ------- 1 0.0 2.0 278 278
- 0.378 0 1 cbr 500 ------- 1 0.0 2.0 278 278
+ 0.379 0 1 cbr 500 ------- 1 0.0 2.0 279 279
- 0.379 0 1 cbr 500 ------- 1 0.0 2.0 279 279
+ 0.38 0 1 cbr 500 ------- 1 0.0 2.0 280 280
- 0.38 0 1 cbr 500 ------- 1 0.0 2.0 280 280
+ 0.381 0 1 cbr 500 ------- 1 0.0 2.0 281 281
- 0.381 0 1 cbr 500 ------- 1 0.0 2.0 281 281
+ 0.382 0 1 cbr 500 ------- 1 0.0 2.0 282 282
- 0.382 0 1 cbr 500 ------- 1 0.0 2.0 282 282
+ 0.383 0 1 cbr 500 ------- 1 0.0 2.0 283 283
- 0.383 0 1 cbr 500 ------- 1 0.0 2.0 283 283
+ 0.384 0 1 cbr 500 ------- 1 0.0 2.0 284 284
- 0.384 0 1 cbr 500 ------- 1 0.0 2.0 284 284
+ 0.385 0 1 cbr 500 ------- 1 0.0 2.0 285 285
- 0.385 0 1 cbr 500 ------- 1 0.0 2.0 285 285
+ 0.386 0 1 cbr 500 ------- 1 0.0 2.0 286 286
- 0.386 0 1 cbr 500 ------- 1 0.0 2.0 286 286
+ 0.387 0 1 cbr 500 ------- 1 0.0 2.0 287 287
- 0.387 0 1 cbr 500 ------- 1 0.0 2.0 287 287
+ 0.388 0 1 cbr 500 ------- 1 0.0 2.0 288 288
- 0.388 0 1 cbr 500 ------- 1 0.0 2.0 288 288
+ 0.389 0 1 cbr 500 ------- 1 0.0 2.0 289 289
- 0.389 0 1 cbr 500 ------- 1 0.0 2.0 289 289
+ 0.39 0 1 cbr 500 ------- 1 0.0 2.0 290 290
- 0.39 0 1 cbr 500 ------- 1 0.0 2.0 290 290
+ 0.391 0 1 cbr 500 ------- 1 0.0 2.0 291 291
- 0.391 0 1 cbr 500 ------- 1 0.0 2.0 291 291
+ 0.392 0 1 cbr 500 ------- 1 0.0 2.0 292 292
- 0.392 0 1 cbr 500 ------- 1 0.0 2.0 292 292
+ 0.393 0 1 cbr 500 ------- 1 0.0 2.0 293 293
- 0.393 0 1 cbr 500 ------- 1 0.0 2.0 293 293
+ 0.394 0 1 cbr 500 ------- 1 0.0 2.0 294 294
- 0.394 0 1 cbr 500 ------- 1 0.0 2.0 294 294
+ 0.395 0 1 cbr 500 ------- 1 0.0 2.0 295 295
- 0.395 0 1 cbr 500 ------- 1 0.0 2.0 295 295
+ 0.396 0 1 cbr 500 ------- 1 0.0 2.0 296 296
- 0.396 0 1 cbr 500 ------- 1 0.0 2.0 296 296
+ 0.397 0 1 cbr 500 ------- 1 0.0 2.0 297 297
- 0.397 0 1 cbr 500 ------- 1 0.0 2.0 297 297
+ 0.398 0 1 cbr 500 ------- 1 0.0 2.0 298 298
- 0.398 0 1 cbr 500 ------- 1 0.0 2.0 298 298
+ 0.399 0 1 cbr 500 ------- 1 0.0 2.0 299 299
- 0.399 0 1 cbr 500 ------- 1 0.0 2.0 299 299
+ 0.4 0 1 cbr 500 ------- 1 0.0 2.0 300 300
- 0.4 0 1 cbr 500 ------- 1 0.0 2.0 300 300
r 0.40002 0 1 cbr 500 ------- 1 0.0 2.0 0 0
+ 0.40002 1 2 cbr 500 ------- 1 0.0 2.0 0 0
- 0.40002 1 2 cbr 500 ------- 1 0.0 2.0 0 0
+ 0.401 0 1 cbr 500 ------- 1 0.0 2.0 301 301
- 0.401 0 1 cbr 500 ------- 1 0.0 2.0 301 301
r 0.40102 0 1 cbr 500 ------- 1 0.0 2.0 1 1
+ 0.40102 1 2 cbr 500 ------- 1 0.0 2.0 1 1
+ 0.402 0 1 cbr 500 ------- 1 0.0 2.0 302 302
- 0.402 0 1 cbr 500 ------- 1 0.0 2.0 302 302
r 0.40202 0 1 cbr 500 ------- 1 0.0 2.0 2 2
+ 0.40202 1 2 cbr 500 ------- 1 0.0 2.0 2 2
d 0.40202 1 2 cbr 500 ------- 1 0.0 2.0 2 2
+ 0.403 0 1 cbr 500 ------- 1 0.0 2.0 303 303
- 0.403 0 1 cbr 500 ------- 1 0.0 2.0 303 303
r 0.40302 0 1 cbr 500 ------- 1 0.0 2.0 3 3
+ 0.40302 1 2 cbr 500 ------- 1 0.0 2.0 3 3
d 0.40302 1 2 cbr 500 ------- 1 0.0 2.0 3 3
+ 0.404 0 1 cbr 500 ------- 1 0.0 2.0 304 304
- 0.404 0 1 cbr 500 ------- 1 0.0 2.0 304 304
r 0.40402 0 1 cbr 500 ------- 1 0.0 2.0 4 4
+ 0.40402 1 2 cbr 500 ------- 1 0.0 2.0 4 4
d 0.40402 1 2 cbr 500 ------- 1 0.0 2.0 4 4
- 0.40402 1 2 cbr 500 ------- 1 0.0 2.0 1 1
+ 0.405 0 1 cbr 500 ------- 1 0.0 2.0 305 305
- 0.405 0 1 cbr 500 ------- 1 0.0 2.0 305 305
r 0.40502 0 1 cbr 500 ------- 1 0.0 2.0 5 5
+ 0.40502 1 2 cbr 500 ------- 1 0.0 2.0 5 5
+ 0.406 0 1 cbr 500 ------- 1 0.0 2.0 306 306
- 0.406 0 1 cbr 500 ------- 1 0.0 2.0 306 306
r 0.40602 0 1 cbr 500 ------- 1 0.0 2.0 6 6
+ 0.40602 1 2 cbr 500 ------- 1 0.0 2.0 6 6
d 0.40602 1 2 cbr 500 ------- 1 0.0 2.0 6 6
+ 0.407 0 1 cbr 500 ------- 1 0.0 2.0 307 307
- 0.407 0 1 cbr 500 ------- 1 0.0 2.0 307 307
r 0.40702 0 1 cbr 500 ------- 1 0.0 2.0 7 7
+ 0.40702 1 2 cbr 500 ------- 1 0.0 2.0 7 7
d 0.40702 1 2 cbr 500 ------- 1 0.0 2.0 7 7
+ 0.408 0 1 cbr 500 ------- 1 0.0 2.0 308 308
- 0.408 0 1 cbr 500 ------- 1 0.0 2.0 308 308
r 0.40802 0 1 cbr 500 ------- 1 0.0 2.0 8 8
+ 0.40802 1 2 cbr 500 ------- 1 0.0 2.0 8 8
d 0.40802 1 2 cbr 500 ------- 1 0.0 2.0 8 8
- 0.40802 1 2 cbr 500 ------- 1 0.0 2.0 5 5
+ 0.409 0 1 cbr 500 ------- 1 0.0 2.0 309 309
- 0.409 0 1 cbr 500 ------- 1 0.0 2.0 309 309
r 0.40902 0 1 cbr 500 ------- 1 0.0 2.0 9 9
+ 0.40902 1 2 cbr 500 ------- 1 0.0 2.0 9 9
+ 0.41 0 1 cbr 500 ------- 1 0.0 2.0 310 310
- 0.41 0 1 cbr 500 ------- 1 0.0 2.0 310 310
r 0.41002 0 1 cbr 500 ------- 1 0.0 2.0 10 10
+ 0.41002 1 2 cbr 500 ------- 1 0.0 2.0 10 10
d 0.41002 1 2 cbr 500 ------- 1 0.0 2.0 10 10
+ 0.411 0 1 cbr 500 ------- 1 0.0 2.0 311 311
- 0.411 0 1 cbr 500 ------- 1 0.0 2.0 311 311
r 0.41102 0 1 cbr 500 ------- 1 0.0 2.0 11 11
+ 0.41102 1 2 cbr 500 ------- 1 0.0 2.0 11 11
d 0.41102 1 2 cbr 500 ------- 1 0.0 2.0 11 11
+ 0.412 0 1 cbr 500 ------- 1 0.0 2.0 312 312
- 0.412 0 1 cbr 500 ------- 1 0.0 2.0 312 312
r 0.41202 0 1 cbr 500 ------- 1 0.0 2.0 12 12
+ 0.41202 1 2 cbr 500 ------- 1 0.0 2.0 12 12
d 0.41202 1 2 cbr 500 ------- 1 0.0 2.0 12 12