n -t * -s 0  -x 194.27557531477677 -y 189.59431545324358 -Z 0 -z 100  -v circle -c green
n -t * -s 1  -x 511.65982266499657 -y 466.63953059662111 -Z 0 -z 100  -v circle -c green
n -t * -s 2  -x 810.59073741109614 -y 598.5236682922224 -Z 0 -z 100  -v circle -c green
n -t * -s 3  -x 387.29298738171019 -y 233.23892440332051 -Z 0 -z 100  -v circle -c green
n -t * -s 4  -x 46.602446607594587 -y 247.32013384221128 -Z 0 -z 100  -v circle -c green
n -t * -s 5  -x 709.48948604496638 -y 389.7919577498883 -Z 0 -z 100  -v circle -c green
n -t * -s 6  -x 233.43390237234249 -y 323.59717196021097 -Z 0 -z 100  -v circle -c green
n -t * -s 7  -x 697.66913526582948 -y 725.15641279758711 -Z 0 -z 100  -v circle -c green
n -t * -s 8  -x 703.82988904781178 -y 268.94522657103147 -Z 0 -z 100  -v circle -c green
n -t * -s 9  -x 162.42297932618436 -y 843.01353518060102 -Z 0 -z 100  -v circle -c green
n -t * -s 10  -x 528.48578036226604 -y 260.51054860489006 -Z 0 -z 100  -v circle -c green
n -t * -s 11  -x 400.79040238670558 -y 84.292913360657593 -Z 0 -z 100  -v circle -c green
n -t * -s 12  -x 710.99485257221147 -y 690.48718115803183 -Z 0 -z 100  -v circle -c green
n -t * -s 13  -x 18.05372304192452 -y 428.92316562539111 -Z 0 -z 100  -v circle -c green
n -t * -s 14  -x 911.6446659488812 -y 11.900602845428793 -Z 0 -z 100  -v circle -c green
n -t * -s 15  -x 13.432023121710877 -y 752.01260659471734 -Z 0 -z 100  -v circle -c green
n -t * -s 16  -x 75.879037415552432 -y 298.98184318979355 -Z 0 -z 100  -v circle -c green
n -t * -s 17  -x 987.83849086046155 -y 601.51589177619485 -Z 0 -z 100  -v circle -c green
n -t * -s 18  -x 677.59308250508877 -y 306.93766302752204 -Z 0 -z 100  -v circle -c green
n -t * -s 19  -x 701.30250356220756 -y 791.17737002259923 -Z 0 -z 100  -v circle -c green
n -t * -s 20  -x 318.05796982630062 -y 600.29887063442675 -Z 0 -z 100  -v circle -c green
n -t * -s 21  -x 223.11875281069371 -y 956.87848932895736 -Z 0 -z 100  -v circle -c green
n -t * -s 22  -x 256.7701517868648 -y 535.94108183679225 -Z 0 -z 100  -v circle -c green
n -t * -s 23  -x 561.76243096672113 -y 541.17725768181367 -Z 0 -z 100  -v circle -c green
n -t * -s 24  -x 566.1698582424641 -y 616.80748109557078 -Z 0 -z 100  -v circle -c green
V -t * -v 1.0a5 -a 0
W -t * -x 1000 -y 1000
A -t * -n 1 -p 0 -o 0x7fffffff -c 30 -a 1
A -t * -h 1 -m 1073741823 -s 0
+ -t 0.000000000 -s 4 -d -1 -p cbr -e 210 -c 2 -a 0 -i 0 -k AGT 
- -t 0.000000000 -s 4 -d -1 -p cbr -e 210 -c 2 -a 0 -i 0 -k AGT
h -t 0.000000000 -s 4 -d -1 -p cbr -e 210 -c 2 -a 0 -i 0 -k AGT
+ -t 0.000000000 -s 4 -d -1 -p AODV -e 48 -c 2 -a 0 -i 0 -k RTR 
- -t 0.000000000 -s 4 -d -1 -p AODV -e 48 -c 2 -a 0 -i 0 -k RTR
h -t 0.000000000 -s 4 -d -1 -p AODV -e 48 -c 2 -a 0 -i 0 -k RTR
r -t 0.001408198 -s 16 -d -1 -p AODV -e 48 -c 2 -a 0 -i 0 -k RTR
r -t 0.001408529 -s 0 -d -1 -p AODV -e 48 -c 2 -a 0 -i 0 -k RTR
r -t 0.001408613 -s 13 -d -1 -p AODV -e 48 -c 2 -a 0 -i 0 -k RTR
r -t 0.001408673 -s 6 -d -1 -p AODV -e 48 -c 2 -a 0 -i 0 -k RTR
+ -t 0.001550245 -s 16 -d -1 -p AODV -e 48 -c 2 -a 0 -i 0 -k RTR 
- -t 0.001550245 -s 16 -d -1 -p AODV -e 48 -c 2 -a 0 -i 0 -k RTR
h -t 0.001550245 -s 16 -d -1 -p AODV -e 48 -c 2 -a 0 -i 0 -k RTR
+ -t 0.002289755 -s 0 -d -1 -p AODV -e 48 -c 2 -a 0 -i 0 -k RTR 
- -t 0.002289755 -s 0 -d -1 -p AODV -e 48 -c 2 -a 0 -i 0 -k RTR
h -t 0.002289755 -s 0 -d -1 -p AODV -e 48 -c 2 -a 0 -i 0 -k RTR
r -t 0.002658442 -s 4 -d -1 -p AODV -e 48 -c 2 -a 0 -i 0 -k RTR
r -t 0.002658719 -s 13 -d -1 -p AODV -e 48 -c 2 -a 0 -i 0 -k RTR
r -t 0.002658776 -s 6 -d -1 -p AODV -e 48 -c 2 -a 0 -i 0 -k RTR
r -t 0.002658782 -s 0 -d -1 -p AODV -e 48 -c 2 -a 0 -i 0 -k RTR
+ -t 0.003750000 -s 4 -d -1 -p cbr -e 210 -c 2 -a 0 -i 1 -k AGT 
- -t 0.003750000 -s 4 -d -1 -p cbr -e 210 -c 2 -a 0 -i 1 -k AGT
h -t 0.003750000 -s 4 -d -1 -p cbr -e 210 -c 2 -a 0 -i 1 -k AGT
r -t 0.003757247 -s 6 -d -1 -p AODV -e 48 -c 2 -a 0 -i 0 -k RTR
r -t 0.003757310 -s 4 -d -1 -p AODV -e 48 -c 2 -a 0 -i 0 -k RTR
r -t 0.003757319 -s 16 -d -1 -p AODV -e 48 -c 2 -a 0 -i 0 -k RTR
r -t 0.003757441 -s 3 -d -1 -p AODV -e 48 -c 2 -a 0 -i 0 -k RTR
r -t 0.003757555 -s 11 -d -1 -p AODV -e 48 -c 2 -a 0 -i 0 -k RTR
+ -t 0.005820347 -s 13 -d -1 -p AODV -e 48 -c 2 -a 0 -i 0 -k RTR 
- -t 0.005820347 -s 13 -d -1 -p AODV -e 48 -c 2 -a 0 -i 0 -k RTR
h -t 0.005820347 -s 13 -d -1 -p AODV -e 48 -c 2 -a 0 -i 0 -k RTR
r -t 0.006808821 -s 16 -d -1 -p AODV -e 48 -c 2 -a 0 -i 0 -k RTR
r -t 0.006808959 -s 4 -d -1 -p AODV -e 48 -c 2 -a 0 -i 0 -k RTR
r -t 0.006809146 -s 6 -d -1 -p AODV -e 48 -c 2 -a 0 -i 0 -k RTR
+ -t 0.006848232 -s 3 -d -1 -p AODV -e 48 -c 2 -a 0 -i 0 -k RTR 
- -t 0.006848232 -s 3 -d -1 -p AODV -e 48 -c 2 -a 0 -i 0 -k RTR
h -t 0.006848232 -s 3 -d -1 -p AODV -e 48 -c 2 -a 0 -i 0 -k RTR
+ -t 0.007500000 -s 4 -d -1 -p cbr -e 210 -c 2 -a 0 -i 2 -k AGT 
- -t 0.007500000 -s 4 -d -1 -p cbr -e 210 -c 2 -a 0 -i 2 -k AGT
h -t 0.007500000 -s 4 -d -1 -p cbr -e 210 -c 2 -a 0 -i 2 -k AGT
r -t 0.008232219 -s 10 -d -1 -p AODV -e 48 -c 2 -a 0 -i 0 -k RTR
r -t 0.008232238 -s 11 -d -1 -p AODV -e 48 -c 2 -a 0 -i 0 -k RTR
r -t 0.008232334 -s 6 -d -1 -p AODV -e 48 -c 2 -a 0 -i 0 -k RTR
r -t 0.008232399 -s 0 -d -1 -p AODV -e 48 -c 2 -a 0 -i 0 -k RTR
+ -t 0.009400227 -s 6 -d -1 -p AODV -e 48 -c 2 -a 0 -i 0 -k RTR 
- -t 0.009400227 -s 6 -d -1 -p AODV -e 48 -c 2 -a 0 -i 0 -k RTR
h -t 0.009400227 -s 6 -d -1 -p AODV -e 48 -c 2 -a 0 -i 0 -k RTR
r -t 0.010508693 -s 0 -d -1 -p AODV -e 48 -c 2 -a 0 -i 0 -k RTR
r -t 0.010508759 -s 16 -d -1 -p AODV -e 48 -c 2 -a 0 -i 0 -k RTR
r -t 0.010508822 -s 3 -d -1 -p AODV -e 48 -c 2 -a 0 -i 0 -k RTR
r -t 0.010508900 -s 4 -d -1 -p AODV -e 48 -c 2 -a 0 -i 0 -k RTR
r -t 0.010508939 -s 22 -d -1 -p AODV -e 48 -c 2 -a 0 -i 0 -k RTR
r -t 0.010509026 -s 13 -d -1 -p AODV -e 48 -c 2 -a 0 -i 0 -k RTR
+ -t 0.011250000 -s 4 -d -1 -p cbr -e 210 -c 2 -a 0 -i 3 -k AGT 
- -t 0.011250000 -s 4 -d -1 -p cbr -e 210 -c 2 -a 0 -i 3 -k AGT
h -t 0.011250000 -s 4 -d -1 -p cbr -e 210 -c 2 -a 0 -i 3 -k AGT
+ -t 0.011450328 -s 22 -d -1 -p AODV -e 48 -c 2 -a 0 -i 0 -k RTR 
- -t 0.011450328 -s 22 -d -1 -p AODV -e 48 -c 2 -a 0 -i 0 -k RTR
h -t 0.011450328 -s 22 -d -1 -p AODV -e 48 -c 2 -a 0 -i 0 -k RTR
+ -t 0.012120790 -s 11 -d -1 -p AODV -e 48 -c 2 -a 0 -i 0 -k RTR 
- -t 0.012120790 -s 11 -d -1 -p AODV -e 48 -c 2 -a 0 -i 0 -k RTR
h -t 0.012120790 -s 11 -d -1 -p AODV -e 48 -c 2 -a 0 -i 0 -k RTR
r -t 0.012718624 -s 20 -d -1 -p AODV -e 48 -c 2 -a 0 -i 0 -k RTR
+ -t 0.012718624 -s 20 -d 22 -p AODV -e 44 -c 2 -a 0 -i 0 -k RTR 
- -t 0.012718624 -s 20 -d 22 -p AODV -e 44 -c 2 -a 0 -i 0 -k RTR
h -t 0.012718624 -s 20 -d 22 -p AODV -e 44 -c 2 -a 0 -i 0 -k RTR
r -t 0.012719040 -s 6 -d -1 -p AODV -e 48 -c 2 -a 0 -i 0 -k RTR
+ -t 0.015000000 -s 4 -d -1 -p cbr -e 210 -c 2 -a 0 -i 4 -k AGT 
- -t 0.015000000 -s 4 -d -1 -p cbr -e 210 -c 2 -a 0 -i 4 -k AGT
h -t 0.015000000 -s 4 -d -1 -p cbr -e 210 -c 2 -a 0 -i 4 -k AGT
+ -t 0.016829496 -s 10 -d -1 -p AODV -e 48 -c 2 -a 0 -i 0 -k RTR 
- -t 0.016829496 -s 10 -d -1 -p AODV -e 48 -c 2 -a 0 -i 0 -k RTR
h -t 0.016829496 -s 10 -d -1 -p AODV -e 48 -c 2 -a 0 -i 0 -k RTR
+ -t 0.017018698 -s 22 -d 6 -p AODV -e 44 -c 2 -a 0 -i 0 -k RTR 
- -t 0.017018698 -s 22 -d 6 -p AODV -e 44 -c 2 -a 0 -i 0 -k RTR
h -t 0.017018698 -s 22 -d 6 -p AODV -e 44 -c 2 -a 0 -i 0 -k RTR
+ -t 0.018750000 -s 4 -d -1 -p cbr -e 210 -c 2 -a 0 -i 5 -k AGT 
- -t 0.018750000 -s 4 -d -1 -p cbr -e 210 -c 2 -a 0 -i 5 -k AGT
h -t 0.018750000 -s 4 -d -1 -p cbr -e 210 -c 2 -a 0 -i 5 -k AGT
r -t 0.019894508 -s 18 -d -1 -p AODV -e 48 -c 2 -a 0 -i 0 -k RTR
r -t 0.019894573 -s 8 -d -1 -p AODV -e 48 -c 2 -a 0 -i 0 -k RTR
r -t 0.019894729 -s 5 -d -1 -p AODV -e 48 -c 2 -a 0 -i 0 -k RTR
r -t 0.021177211 -s 3 -d -1 -p AODV -e 48 -c 2 -a 0 -i 0 -k RTR
r -t 0.021177438 -s 10 -d -1 -p AODV -e 48 -c 2 -a 0 -i 0 -k RTR
r -t 0.021177486 -s 0 -d -1 -p AODV -e 48 -c 2 -a 0 -i 0 -k RTR
+ -t 0.022500000 -s 4 -d -1 -p cbr -e 210 -c 2 -a 0 -i 6 -k AGT 
- -t 0.022500000 -s 4 -d -1 -p cbr -e 210 -c 2 -a 0 -i 6 -k AGT
h -t 0.022500000 -s 4 -d -1 -p cbr -e 210 -c 2 -a 0 -i 6 -k AGT
+ -t 0.025215959 -s 6 -d 4 -p AODV -e 44 -c 2 -a 0 -i 0 -k RTR 
- -t 0.025215959 -s 6 -d 4 -p AODV -e 44 -c 2 -a 0 -i 0 -k RTR
h -t 0.025215959 -s 6 -d 4 -p AODV -e 44 -c 2 -a 0 -i 0 -k RTR
+ -t 0.026250000 -s 4 -d -1 -p cbr -e 210 -c 2 -a 0 -i 7 -k AGT 
- -t 0.026250000 -s 4 -d -1 -p cbr -e 210 -c 2 -a 0 -i 7 -k AGT
h -t 0.026250000 -s 4 -d -1 -p cbr -e 210 -c 2 -a 0 -i 7 -k AGT
+ -t 0.026667997 -s 18 -d -1 -p AODV -e 48 -c 2 -a 0 -i 0 -k RTR 
- -t 0.026667997 -s 18 -d -1 -p AODV -e 48 -c 2 -a 0 -i 0 -k RTR
h -t 0.026667997 -s 18 -d -1 -p AODV -e 48 -c 2 -a 0 -i 0 -k RTR
+ -t 0.027516891 -s 8 -d -1 -p AODV -e 48 -c 2 -a 0 -i 0 -k RTR 
- -t 0.027516891 -s 8 -d -1 -p AODV -e 48 -c 2 -a 0 -i 0 -k RTR
h -t 0.027516891 -s 8 -d -1 -p AODV -e 48 -c 2 -a 0 -i 0 -k RTR
r -t 0.028614036 -s 18 -d -1 -p AODV -e 48 -c 2 -a 0 -i 0 -k RTR
r -t 0.028614286 -s 5 -d -1 -p AODV -e 48 -c 2 -a 0 -i 0 -k RTR
+ -t 0.028944184 -s 5 -d -1 -p AODV -e 48 -c 2 -a 0 -i 0 -k RTR 
- -t 0.028944184 -s 5 -d -1 -p AODV -e 48 -c 2 -a 0 -i 0 -k RTR
h -t 0.028944184 -s 5 -d -1 -p AODV -e 48 -c 2 -a 0 -i 0 -k RTR
r -t 0.029887285 -s 8 -d -1 -p AODV -e 48 -c 2 -a 0 -i 0 -k RTR
r -t 0.029887427 -s 5 -d -1 -p AODV -e 48 -c 2 -a 0 -i 0 -k RTR
r -t 0.029887651 -s 10 -d -1 -p AODV -e 48 -c 2 -a 0 -i 0 -k RTR
r -t 0.029887899 -s 1 -d -1 -p AODV -e 48 -c 2 -a 0 -i 0 -k RTR
+ -t 0.030000000 -s 4 -d -1 -p cbr -e 210 -c 2 -a 0 -i 8 -k AGT 
- -t 0.030000000 -s 4 -d -1 -p cbr -e 210 -c 2 -a 0 -i 8 -k AGT
h -t 0.030000000 -s 4 -d -1 -p cbr -e 210 -c 2 -a 0 -i 8 -k AGT
+ -t 0.031816631 -s 4 -d 6 -p cbr -e 230 -c 2 -a 0 -i 0 -k RTR 
- -t 0.031816631 -s 4 -d 6 -p cbr -e 230 -c 2 -a 0 -i 0 -k RTR
h -t 0.031816631 -s 4 -d 6 -p cbr -e 230 -c 2 -a 0 -i 0 -k RTR
r -t 0.033199856 -s 18 -d -1 -p AODV -e 48 -c 2 -a 0 -i 0 -k RTR
r -t 0.033199963 -s 8 -d -1 -p AODV -e 48 -c 2 -a 0 -i 0 -k RTR
r -t 0.033200265 -s 23 -d -1 -p AODV -e 48 -c 2 -a 0 -i 0 -k RTR
r -t 0.033200267 -s 1 -d -1 -p AODV -e 48 -c 2 -a 0 -i 0 -k RTR
r -t 0.033200301 -s 10 -d -1 -p AODV -e 48 -c 2 -a 0 -i 0 -k RTR
r -t 0.033200333 -s 2 -d -1 -p AODV -e 48 -c 2 -a 0 -i 0 -k RTR
+ -t 0.033750000 -s 4 -d -1 -p cbr -e 210 -c 2 -a 0 -i 9 -k AGT 
- -t 0.033750000 -s 4 -d -1 -p cbr -e 210 -c 2 -a 0 -i 9 -k AGT
h -t 0.033750000 -s 4 -d -1 -p cbr -e 210 -c 2 -a 0 -i 9 -k AGT
+ -t 0.033750000 -s 4 -d 6 -p cbr -e 230 -c 2 -a 0 -i 9 -k RTR 
- -t 0.033750000 -s 4 -d 6 -p cbr -e 230 -c 2 -a 0 -i 9 -k RTR
h -t 0.033750000 -s 4 -d 6 -p cbr -e 230 -c 2 -a 0 -i 9 -k RTR
+ -t 0.035818506 -s 23 -d -1 -p AODV -e 48 -c 2 -a 0 -i 0 -k RTR 
- -t 0.035818506 -s 23 -d -1 -p AODV -e 48 -c 2 -a 0 -i 0 -k RTR
h -t 0.035818506 -s 23 -d -1 -p AODV -e 48 -c 2 -a 0 -i 0 -k RTR
+ -t 0.036522649 -s 6 -d 22 -p cbr -e 230 -c 2 -a 0 -i 0 -k RTR 
- -t 0.036522649 -s 6 -d 22 -p cbr -e 230 -c 2 -a 0 -i 0 -k RTR
h -t 0.036522649 -s 6 -d 22 -p cbr -e 230 -c 2 -a 0 -i 0 -k RTR
+ -t 0.036574138 -s 1 -d -1 -p AODV -e 48 -c 2 -a 0 -i 0 -k RTR 
- -t 0.036574138 -s 1 -d -1 -p AODV -e 48 -c 2 -a 0 -i 0 -k RTR
h -t 0.036574138 -s 1 -d -1 -p AODV -e 48 -c 2 -a 0 -i 0 -k RTR
r -t 0.036986759 -s 24 -d -1 -p AODV -e 48 -c 2 -a 0 -i 0 -k RTR
r -t 0.036987210 -s 12 -d -1 -p AODV -e 48 -c 2 -a 0 -i 0 -k RTR
r -t 0.036987212 -s 5 -d -1 -p AODV -e 48 -c 2 -a 0 -i 0 -k RTR
r -t 0.036987269 -s 7 -d -1 -p AODV -e 48 -c 2 -a 0 -i 0 -k RTR
+ -t 0.037500000 -s 4 -d -1 -p cbr -e 210 -c 2 -a 0 -i 10 -k AGT 
- -t 0.037500000 -s 4 -d -1 -p cbr -e 210 -c 2 -a 0 -i 10 -k AGT
h -t 0.037500000 -s 4 -d -1 -p cbr -e 210 -c 2 -a 0 -i 10 -k AGT
+ -t 0.037500000 -s 4 -d 6 -p cbr -e 230 -c 2 -a 0 -i 10 -k RTR 
- -t 0.037500000 -s 4 -d 6 -p cbr -e 230 -c 2 -a 0 -i 10 -k RTR
h -t 0.037500000 -s 4 -d 6 -p cbr -e 230 -c 2 -a 0 -i 10 -k RTR
+ -t 0.038748730 -s 2 -d -1 -p AODV -e 48 -c 2 -a 0 -i 0 -k RTR 
- -t 0.038748730 -s 2 -d -1 -p AODV -e 48 -c 2 -a 0 -i 0 -k RTR
h -t 0.038748730 -s 2 -d -1 -p AODV -e 48 -c 2 -a 0 -i 0 -k RTR
r -t 0.039717182 -s 12 -d -1 -p AODV -e 48 -c 2 -a 0 -i 0 -k RTR
r -t 0.039717295 -s 7 -d -1 -p AODV -e 48 -c 2 -a 0 -i 0 -k RTR
r -t 0.039717321 -s 17 -d -1 -p AODV -e 48 -c 2 -a 0 -i 0 -k RTR
r -t 0.039717468 -s 19 -d -1 -p AODV -e 48 -c 2 -a 0 -i 0 -k RTR
r -t 0.039717503 -s 5 -d -1 -p AODV -e 48 -c 2 -a 0 -i 0 -k RTR
r -t 0.039717547 -s 24 -d -1 -p AODV -e 48 -c 2 -a 0 -i 0 -k RTR
+ -t 0.040169339 -s 6 -d 22 -p cbr -e 230 -c 2 -a 0 -i 9 -k RTR 
- -t 0.040169339 -s 6 -d 22 -p cbr -e 230 -c 2 -a 0 -i 9 -k RTR
h -t 0.040169339 -s 6 -d 22 -p cbr -e 230 -c 2 -a 0 -i 9 -k RTR
+ -t 0.041250000 -s 4 -d -1 -p cbr -e 210 -c 2 -a 0 -i 11 -k AGT 
- -t 0.041250000 -s 4 -d -1 -p cbr -e 210 -c 2 -a 0 -i 11 -k AGT
h -t 0.041250000 -s 4 -d -1 -p cbr -e 210 -c 2 -a 0 -i 11 -k AGT
+ -t 0.041250000 -s 4 -d 6 -p cbr -e 230 -c 2 -a 0 -i 11 -k RTR 
- -t 0.041250000 -s 4 -d 6 -p cbr -e 230 -c 2 -a 0 -i 11 -k RTR
h -t 0.041250000 -s 4 -d 6 -p cbr -e 230 -c 2 -a 0 -i 11 -k RTR
+ -t 0.041504599 -s 17 -d -1 -p AODV -e 48 -c 2 -a 0 -i 0 -k RTR 
- -t 0.041504599 -s 17 -d -1 -p AODV -e 48 -c 2 -a 0 -i 0 -k RTR
h -t 0.041504599 -s 17 -d -1 -p AODV -e 48 -c 2 -a 0 -i 0 -k RTR
+ -t 0.041816631 -s 4 -d 6 -p cbr -e 230 -c 2 -a 0 -i 1 -k RTR 
- -t 0.041816631 -s 4 -d 6 -p cbr -e 230 -c 2 -a 0 -i 1 -k RTR
h -t 0.041816631 -s 4 -d 6 -p cbr -e 230 -c 2 -a 0 -i 1 -k RTR
r -t 0.042493190 -s 2 -d -1 -p AODV -e 48 -c 2 -a 0 -i 0 -k RTR
+ -t 0.043816030 -s 6 -d 22 -p cbr -e 230 -c 2 -a 0 -i 10 -k RTR 
- -t 0.043816030 -s 6 -d 22 -p cbr -e 230 -c 2 -a 0 -i 10 -k RTR
h -t 0.043816030 -s 6 -d 22 -p cbr -e 230 -c 2 -a 0 -i 10 -k RTR
+ -t 0.044714226 -s 7 -d -1 -p AODV -e 48 -c 2 -a 0 -i 0 -k RTR 
- -t 0.044714226 -s 7 -d -1 -p AODV -e 48 -c 2 -a 0 -i 0 -k RTR
h -t 0.044714226 -s 7 -d -1 -p AODV -e 48 -c 2 -a 0 -i 0 -k RTR
+ -t 0.044836630 -s 24 -d -1 -p AODV -e 48 -c 2 -a 0 -i 0 -k RTR 
- -t 0.044836630 -s 24 -d -1 -p AODV -e 48 -c 2 -a 0 -i 0 -k RTR
h -t 0.044836630 -s 24 -d -1 -p AODV -e 48 -c 2 -a 0 -i 0 -k RTR
+ -t 0.045000000 -s 4 -d -1 -p cbr -e 210 -c 2 -a 0 -i 12 -k AGT 
- -t 0.045000000 -s 4 -d -1 -p cbr -e 210 -c 2 -a 0 -i 12 -k AGT
h -t 0.045000000 -s 4 -d -1 -p cbr -e 210 -c 2 -a 0 -i 12 -k AGT
+ -t 0.045000000 -s 4 -d 6 -p cbr -e 230 -c 2 -a 0 -i 12 -k RTR 
- -t 0.045000000 -s 4 -d 6 -p cbr -e 230 -c 2 -a 0 -i 12 -k RTR
h -t 0.045000000 -s 4 -d 6 -p cbr -e 230 -c 2 -a 0 -i 12 -k RTR
r -t 0.046330465 -s 12 -d -1 -p AODV -e 48 -c 2 -a 0 -i 0 -k RTR
r -t 0.046330562 -s 19 -d -1 -p AODV -e 48 -c 2 -a 0 -i 0 -k RTR
r -t 0.046330907 -s 2 -d -1 -p AODV -e 48 -c 2 -a 0 -i 0 -k RTR
+ -t 0.046455372 -s 12 -d -1 -p AODV -e 48 -c 2 -a 0 -i 0 -k RTR 
- -t 0.046455372 -s 12 -d -1 -p AODV -e 48 -c 2 -a 0 -i 0 -k RTR
h -t 0.046455372 -s 12 -d -1 -p AODV -e 48 -c 2 -a 0 -i 0 -k RTR
+ -t 0.047182166 -s 22 -d 20 -p cbr -e 230 -c 2 -a 0 -i 0 -k RTR 
- -t 0.047182166 -s 22 -d 20 -p cbr -e 230 -c 2 -a 0 -i 0 -k RTR
h -t 0.047182166 -s 22 -d 20 -p cbr -e 230 -c 2 -a 0 -i 0 -k RTR
r -t 0.047663496 -s 7 -d -1 -p AODV -e 48 -c 2 -a 0 -i 0 -k RTR
r -t 0.047663709 -s 19 -d -1 -p AODV -e 48 -c 2 -a 0 -i 0 -k RTR
r -t 0.047663824 -s 2 -d -1 -p AODV -e 48 -c 2 -a 0 -i 0 -k RTR
+ -t 0.048750000 -s 4 -d -1 -p cbr -e 210 -c 2 -a 0 -i 13 -k AGT 
- -t 0.048750000 -s 4 -d -1 -p cbr -e 210 -c 2 -a 0 -i 13 -k AGT
h -t 0.048750000 -s 4 -d -1 -p cbr -e 210 -c 2 -a 0 -i 13 -k AGT
+ -t 0.048750000 -s 4 -d 6 -p cbr -e 230 -c 2 -a 0 -i 13 -k RTR 
- -t 0.048750000 -s 4 -d 6 -p cbr -e 230 -c 2 -a 0 -i 13 -k RTR
h -t 0.048750000 -s 4 -d 6 -p cbr -e 230 -c 2 -a 0 -i 13 -k RTR
+ -t 0.049477535 -s 19 -d -1 -p AODV -e 48 -c 2 -a 0 -i 0 -k RTR 
- -t 0.049477535 -s 19 -d -1 -p AODV -e 48 -c 2 -a 0 -i 0 -k RTR
h -t 0.049477535 -s 19 -d -1 -p AODV -e 48 -c 2 -a 0 -i 0 -k RTR
r -t 0.051259860 -s 20 -d 20 -p cbr -e 230 -c 2 -a 0 -i 0 -k AGT
+ -t 0.051816631 -s 4 -d 6 -p cbr -e 230 -c 2 -a 0 -i 2 -k RTR 
- -t 0.051816631 -s 4 -d 6 -p cbr -e 230 -c 2 -a 0 -i 2 -k RTR
h -t 0.051816631 -s 4 -d 6 -p cbr -e 230 -c 2 -a 0 -i 2 -k RTR
+ -t 0.052500000 -s 4 -d -1 -p cbr -e 210 -c 2 -a 0 -i 14 -k AGT 
- -t 0.052500000 -s 4 -d -1 -p cbr -e 210 -c 2 -a 0 -i 14 -k AGT
h -t 0.052500000 -s 4 -d -1 -p cbr -e 210 -c 2 -a 0 -i 14 -k AGT
+ -t 0.052500000 -s 4 -d 6 -p cbr -e 230 -c 2 -a 0 -i 14 -k RTR 
- -t 0.052500000 -s 4 -d 6 -p cbr -e 230 -c 2 -a 0 -i 14 -k RTR
h -t 0.052500000 -s 4 -d 6 -p cbr -e 230 -c 2 -a 0 -i 14 -k RTR
r -t 0.052602744 -s 23 -d -1 -p AODV -e 48 -c 2 -a 0 -i 0 -k RTR
r -t 0.052602977 -s 24 -d -1 -p AODV -e 48 -c 2 -a 0 -i 0 -k RTR
r -t 0.052603134 -s 10 -d -1 -p AODV -e 48 -c 2 -a 0 -i 0 -k RTR
r -t 0.052603152 -s 5 -d -1 -p AODV -e 48 -c 2 -a 0 -i 0 -k RTR
r -t 0.052603212 -s 18 -d -1 -p AODV -e 48 -c 2 -a 0 -i 0 -k RTR
r -t 0.052603229 -s 20 -d -1 -p AODV -e 48 -c 2 -a 0 -i 0 -k RTR
r -t 0.053521229 -s 23 -d -1 -p AODV -e 48 -c 2 -a 0 -i 0 -k RTR
r -t 0.053521509 -s 1 -d -1 -p AODV -e 48 -c 2 -a 0 -i 0 -k RTR
r -t 0.053521518 -s 12 -d -1 -p AODV -e 48 -c 2 -a 0 -i 0 -k RTR
r -t 0.053521545 -s 7 -d -1 -p AODV -e 48 -c 2 -a 0 -i 0 -k RTR
r -t 0.053521712 -s 19 -d -1 -p AODV -e 48 -c 2 -a 0 -i 0 -k RTR
r -t 0.053521794 -s 2 -d -1 -p AODV -e 48 -c 2 -a 0 -i 0 -k RTR
r -t 0.053521806 -s 20 -d -1 -p AODV -e 48 -c 2 -a 0 -i 0 -k RTR
r -t 0.054539933 -s 7 -d -1 -p AODV -e 48 -c 2 -a 0 -i 0 -k RTR
r -t 0.054540049 -s 12 -d -1 -p AODV -e 48 -c 2 -a 0 -i 0 -k RTR
r -t 0.054540448 -s 24 -d -1 -p AODV -e 48 -c 2 -a 0 -i 0 -k RTR
r -t 0.054540450 -s 2 -d -1 -p AODV -e 48 -c 2 -a 0 -i 0 -k RTR
+ -t 0.056250000 -s 4 -d -1 -p cbr -e 210 -c 2 -a 0 -i 15 -k AGT 
- -t 0.056250000 -s 4 -d -1 -p cbr -e 210 -c 2 -a 0 -i 15 -k AGT
h -t 0.056250000 -s 4 -d -1 -p cbr -e 210 -c 2 -a 0 -i 15 -k AGT
+ -t 0.056250000 -s 4 -d 6 -p cbr -e 230 -c 2 -a 0 -i 15 -k RTR 
- -t 0.056250000 -s 4 -d 6 -p cbr -e 230 -c 2 -a 0 -i 15 -k RTR
h -t 0.056250000 -s 4 -d 6 -p cbr -e 230 -c 2 -a 0 -i 15 -k RTR
+ -t 0.058358591 -s 22 -d 20 -p cbr -e 230 -c 2 -a 0 -i 9 -k RTR 
- -t 0.058358591 -s 22 -d 20 -p cbr -e 230 -c 2 -a 0 -i 9 -k RTR
h -t 0.058358591 -s 22 -d 20 -p cbr -e 230 -c 2 -a 0 -i 9 -k RTR
+ -t 0.060000000 -s 4 -d -1 -p cbr -e 210 -c 2 -a 0 -i 16 -k AGT 
- -t 0.060000000 -s 4 -d -1 -p cbr -e 210 -c 2 -a 0 -i 16 -k AGT
h -t 0.060000000 -s 4 -d -1 -p cbr -e 210 -c 2 -a 0 -i 16 -k AGT
+ -t 0.060000000 -s 4 -d 6 -p cbr -e 230 -c 2 -a 0 -i 16 -k RTR 
- -t 0.060000000 -s 4 -d 6 -p cbr -e 230 -c 2 -a 0 -i 16 -k RTR
h -t 0.060000000 -s 4 -d 6 -p cbr -e 230 -c 2 -a 0 -i 16 -k RTR
+ -t 0.061816631 -s 4 -d 6 -p cbr -e 230 -c 2 -a 0 -i 3 -k RTR 
- -t 0.061816631 -s 4 -d 6 -p cbr -e 230 -c 2 -a 0 -i 3 -k RTR
h -t 0.061816631 -s 4 -d 6 -p cbr -e 230 -c 2 -a 0 -i 3 -k RTR
+ -t 0.063091440 -s 22 -d 20 -p cbr -e 230 -c 2 -a 0 -i 10 -k RTR 
- -t 0.063091440 -s 22 -d 20 -p cbr -e 230 -c 2 -a 0 -i 10 -k RTR
h -t 0.063091440 -s 22 -d 20 -p cbr -e 230 -c 2 -a 0 -i 10 -k RTR
+ -t 0.063750000 -s 4 -d -1 -p cbr -e 210 -c 2 -a 0 -i 17 -k AGT 
- -t 0.063750000 -s 4 -d -1 -p cbr -e 210 -c 2 -a 0 -i 17 -k AGT
h -t 0.063750000 -s 4 -d -1 -p cbr -e 210 -c 2 -a 0 -i 17 -k AGT
+ -t 0.063750000 -s 4 -d 6 -p cbr -e 230 -c 2 -a 0 -i 17 -k RTR 
- -t 0.063750000 -s 4 -d 6 -p cbr -e 230 -c 2 -a 0 -i 17 -k RTR
h -t 0.063750000 -s 4 -d 6 -p cbr -e 230 -c 2 -a 0 -i 17 -k RTR
r -t 0.066796328 -s 20 -d 20 -p cbr -e 230 -c 2 -a 0 -i 9 -k AGT
+ -t 0.067500000 -s 4 -d -1 -p cbr -e 210 -c 2 -a 0 -i 18 -k AGT 
- -t 0.067500000 -s 4 -d -1 -p cbr -e 210 -c 2 -a 0 -i 18 -k AGT
h -t 0.067500000 -s 4 -d -1 -p cbr -e 210 -c 2 -a 0 -i 18 -k AGT
+ -t 0.067500000 -s 4 -d 6 -p cbr -e 230 -c 2 -a 0 -i 18 -k RTR 
- -t 0.067500000 -s 4 -d 6 -p cbr -e 230 -c 2 -a 0 -i 18 -k RTR
h -t 0.067500000 -s 4 -d 6 -p cbr -e 230 -c 2 -a 0 -i 18 -k RTR
r -t 0.070721513 -s 20 -d 20 -p cbr -e 230 -c 2 -a 0 -i 10 -k AGT
+ -t 0.071250000 -s 4 -d -1 -p cbr -e 210 -c 2 -a 0 -i 19 -k AGT 
- -t 0.071250000 -s 4 -d -1 -p cbr -e 210 -c 2 -a 0 -i 19 -k AGT
h -t 0.071250000 -s 4 -d -1 -p cbr -e 210 -c 2 -a 0 -i 19 -k AGT
+ -t 0.071250000 -s 4 -d 6 -p cbr -e 230 -c 2 -a 0 -i 19 -k RTR 
- -t 0.071250000 -s 4 -d 6 -p cbr -e 230 -c 2 -a 0 -i 19 -k RTR
h -t 0.071250000 -s 4 -d 6 -p cbr -e 230 -c 2 -a 0 -i 19 -k RTR
+ -t 0.071816631 -s 4 -d 6 -p cbr -e 230 -c 2 -a 0 -i 4 -k RTR 
- -t 0.071816631 -s 4 -d 6 -p cbr -e 230 -c 2 -a 0 -i 4 -k RTR
h -t 0.071816631 -s 4 -d 6 -p cbr -e 230 -c 2 -a 0 -i 4 -k RTR
+ -t 0.074673016 -s 6 -d 22 -p cbr -e 230 -c 2 -a 0 -i 11 -k RTR 
- -t 0.074673016 -s 6 -d 22 -p cbr -e 230 -c 2 -a 0 -i 11 -k RTR
h -t 0.074673016 -s 6 -d 22 -p cbr -e 230 -c 2 -a 0 -i 11 -k RTR
+ -t 0.075000000 -s 4 -d -1 -p cbr -e 210 -c 2 -a 0 -i 20 -k AGT 
- -t 0.075000000 -s 4 -d -1 -p cbr -e 210 -c 2 -a 0 -i 20 -k AGT
h -t 0.075000000 -s 4 -d -1 -p cbr -e 210 -c 2 -a 0 -i 20 -k AGT
+ -t 0.075000000 -s 4 -d 6 -p cbr -e 230 -c 2 -a 0 -i 20 -k RTR 
- -t 0.075000000 -s 4 -d 6 -p cbr -e 230 -c 2 -a 0 -i 20 -k RTR
h -t 0.075000000 -s 4 -d 6 -p cbr -e 230 -c 2 -a 0 -i 20 -k RTR
+ -t 0.078179706 -s 6 -d 22 -p cbr -e 230 -c 2 -a 0 -i 1 -k RTR 
- -t 0.078179706 -s 6 -d 22 -p cbr -e 230 -c 2 -a 0 -i 1 -k RTR
h -t 0.078179706 -s 6 -d 22 -p cbr -e 230 -c 2 -a 0 -i 1 -k RTR
+ -t 0.078750000 -s 4 -d -1 -p cbr -e 210 -c 2 -a 0 -i 21 -k AGT 
- -t 0.078750000 -s 4 -d -1 -p cbr -e 210 -c 2 -a 0 -i 21 -k AGT
h -t 0.078750000 -s 4 -d -1 -p cbr -e 210 -c 2 -a 0 -i 21 -k AGT
+ -t 0.078750000 -s 4 -d 6 -p cbr -e 230 -c 2 -a 0 -i 21 -k RTR 
- -t 0.078750000 -s 4 -d 6 -p cbr -e 230 -c 2 -a 0 -i 21 -k RTR
h -t 0.078750000 -s 4 -d 6 -p cbr -e 230 -c 2 -a 0 -i 21 -k RTR
+ -t 0.081545843 -s 22 -d 20 -p cbr -e 230 -c 2 -a 0 -i 11 -k RTR 
- -t 0.081545843 -s 22 -d 20 -p cbr -e 230 -c 2 -a 0 -i 11 -k RTR
h -t 0.081545843 -s 22 -d 20 -p cbr -e 230 -c 2 -a 0 -i 11 -k RTR
+ -t 0.081816631 -s 4 -d 6 -p cbr -e 230 -c 2 -a 0 -i 5 -k RTR 
- -t 0.081816631 -s 4 -d 6 -p cbr -e 230 -c 2 -a 0 -i 5 -k RTR
h -t 0.081816631 -s 4 -d 6 -p cbr -e 230 -c 2 -a 0 -i 5 -k RTR
+ -t 0.082500000 -s 4 -d -1 -p cbr -e 210 -c 2 -a 0 -i 22 -k AGT 
- -t 0.082500000 -s 4 -d -1 -p cbr -e 210 -c 2 -a 0 -i 22 -k AGT
h -t 0.082500000 -s 4 -d -1 -p cbr -e 210 -c 2 -a 0 -i 22 -k AGT
+ -t 0.082500000 -s 4 -d 6 -p cbr -e 230 -c 2 -a 0 -i 22 -k RTR 
- -t 0.082500000 -s 4 -d 6 -p cbr -e 230 -c 2 -a 0 -i 22 -k RTR
h -t 0.082500000 -s 4 -d 6 -p cbr -e 230 -c 2 -a 0 -i 22 -k RTR
+ -t 0.085012691 -s 22 -d 20 -p cbr -e 230 -c 2 -a 0 -i 1 -k RTR 
- -t 0.085012691 -s 22 -d 20 -p cbr -e 230 -c 2 -a 0 -i 1 -k RTR
h -t 0.085012691 -s 22 -d 20 -p cbr -e 230 -c 2 -a 0 -i 1 -k RTR
+ -t 0.086250000 -s 4 -d -1 -p cbr -e 210 -c 2 -a 0 -i 23 -k AGT 
- -t 0.086250000 -s 4 -d -1 -p cbr -e 210 -c 2 -a 0 -i 23 -k AGT
h -t 0.086250000 -s 4 -d -1 -p cbr -e 210 -c 2 -a 0 -i 23 -k AGT
+ -t 0.086250000 -s 4 -d 6 -p cbr -e 230 -c 2 -a 0 -i 23 -k RTR 
- -t 0.086250000 -s 4 -d 6 -p cbr -e 230 -c 2 -a 0 -i 23 -k RTR
h -t 0.086250000 -s 4 -d 6 -p cbr -e 230 -c 2 -a 0 -i 23 -k RTR
r -t 0.088637580 -s 20 -d 20 -p cbr -e 230 -c 2 -a 0 -i 11 -k AGT
+ -t 0.090000000 -s 4 -d -1 -p cbr -e 210 -c 2 -a 0 -i 24 -k AGT 
- -t 0.090000000 -s 4 -d -1 -p cbr -e 210 -c 2 -a 0 -i 24 -k AGT
h -t 0.090000000 -s 4 -d -1 -p cbr -e 210 -c 2 -a 0 -i 24 -k AGT
+ -t 0.090000000 -s 4 -d 6 -p cbr -e 230 -c 2 -a 0 -i 24 -k RTR 
- -t 0.090000000 -s 4 -d 6 -p cbr -e 230 -c 2 -a 0 -i 24 -k RTR
h -t 0.090000000 -s 4 -d 6 -p cbr -e 230 -c 2 -a 0 -i 24 -k RTR
+ -t 0.091816631 -s 4 -d 6 -p cbr -e 230 -c 2 -a 0 -i 6 -k RTR 
- -t 0.091816631 -s 4 -d 6 -p cbr -e 230 -c 2 -a 0 -i 6 -k RTR
h -t 0.091816631 -s 4 -d 6 -p cbr -e 230 -c 2 -a 0 -i 6 -k RTR
r -t 0.092202765 -s 20 -d 20 -p cbr -e 230 -c 2 -a 0 -i 1 -k AGT
+ -t 0.093750000 -s 4 -d -1 -p cbr -e 210 -c 2 -a 0 -i 25 -k AGT 
- -t 0.093750000 -s 4 -d -1 -p cbr -e 210 -c 2 -a 0 -i 25 -k AGT
h -t 0.093750000 -s 4 -d -1 -p cbr -e 210 -c 2 -a 0 -i 25 -k AGT
+ -t 0.093750000 -s 4 -d 6 -p cbr -e 230 -c 2 -a 0 -i 25 -k RTR 
- -t 0.093750000 -s 4 -d 6 -p cbr -e 230 -c 2 -a 0 -i 25 -k RTR
h -t 0.093750000 -s 4 -d 6 -p cbr -e 230 -c 2 -a 0 -i 25 -k RTR
+ -t 0.096334267 -s 6 -d 22 -p cbr -e 230 -c 2 -a 0 -i 12 -k RTR 
- -t 0.096334267 -s 6 -d 22 -p cbr -e 230 -c 2 -a 0 -i 12 -k RTR
h -t 0.096334267 -s 6 -d 22 -p cbr -e 230 -c 2 -a 0 -i 12 -k RTR
+ -t 0.097500000 -s 4 -d -1 -p cbr -e 210 -c 2 -a 0 -i 26 -k AGT 
- -t 0.097500000 -s 4 -d -1 -p cbr -e 210 -c 2 -a 0 -i 26 -k AGT
h -t 0.097500000 -s 4 -d -1 -p cbr -e 210 -c 2 -a 0 -i 26 -k AGT
+ -t 0.097500000 -s 4 -d 6 -p cbr -e 230 -c 2 -a 0 -i 26 -k RTR 
- -t 0.097500000 -s 4 -d 6 -p cbr -e 230 -c 2 -a 0 -i 26 -k RTR
h -t 0.097500000 -s 4 -d 6 -p cbr -e 230 -c 2 -a 0 -i 26 -k RTR
+ -t 0.099820403 -s 22 -d 20 -p cbr -e 230 -c 2 -a 0 -i 12 -k RTR 
- -t 0.099820403 -s 22 -d 20 -p cbr -e 230 -c 2 -a 0 -i 12 -k RTR
h -t 0.099820403 -s 22 -d 20 -p cbr -e 230 -c 2 -a 0 -i 12 -k RTR
m -t 0.10000000000000001 -s 4 -n m -c red -h square
m -t 0.10000000000000001 -s 20 -n m -c orange -h square
n -t 0.10000000000000001 -s 4 -S DLABEL -l "Sender" -L ""
n -t 0.10000000000000001 -s 20 -S DLABEL -l "Reciever" -L ""
+ -t 0.101250000 -s 4 -d -1 -p cbr -e 210 -c 2 -a 0 -i 27 -k AGT 
- -t 0.101250000 -s 4 -d -1 -p cbr -e 210 -c 2 -a 0 -i 27 -k AGT
h -t 0.101250000 -s 4 -d -1 -p cbr -e 210 -c 2 -a 0 -i 27 -k AGT
+ -t 0.101250000 -s 4 -d 6 -p cbr -e 230 -c 2 -a 0 -i 27 -k RTR 
- -t 0.101250000 -s 4 -d 6 -p cbr -e 230 -c 2 -a 0 -i 27 -k RTR
h -t 0.101250000 -s 4 -d 6 -p cbr -e 230 -c 2 -a 0 -i 27 -k RTR
+ -t 0.101816631 -s 4 -d 6 -p cbr -e 230 -c 2 -a 0 -i 7 -k RTR 
- -t 0.101816631 -s 4 -d 6 -p cbr -e 230 -c 2 -a 0 -i 7 -k RTR
h -t 0.101816631 -s 4 -d 6 -p cbr -e 230 -c 2 -a 0 -i 7 -k RTR
r -t 0.103485292 -s 20 -d 20 -p cbr -e 230 -c 2 -a 0 -i 12 -k AGT
+ -t 0.105000000 -s 4 -d -1 -p cbr -e 210 -c 2 -a 0 -i 28 -k AGT 
- -t 0.105000000 -s 4 -d -1 -p cbr -e 210 -c 2 -a 0 -i 28 -k AGT
h -t 0.105000000 -s 4 -d -1 -p cbr -e 210 -c 2 -a 0 -i 28 -k AGT
+ -t 0.105000000 -s 4 -d 6 -p cbr -e 230 -c 2 -a 0 -i 28 -k RTR 
- -t 0.105000000 -s 4 -d 6 -p cbr -e 230 -c 2 -a 0 -i 28 -k RTR
h -t 0.105000000 -s 4 -d 6 -p cbr -e 230 -c 2 -a 0 -i 28 -k RTR
+ -t 0.107416794 -s 6 -d 22 -p cbr -e 230 -c 2 -a 0 -i 13 -k RTR 
- -t 0.107416794 -s 6 -d 22 -p cbr -e 230 -c 2 -a 0 -i 13 -k RTR
h -t 0.107416794 -s 6 -d 22 -p cbr -e 230 -c 2 -a 0 -i 13 -k RTR
+ -t 0.108750000 -s 4 -d -1 -p cbr -e 210 -c 2 -a 0 -i 29 -k AGT 
- -t 0.108750000 -s 4 -d -1 -p cbr -e 210 -c 2 -a 0 -i 29 -k AGT
h -t 0.108750000 -s 4 -d -1 -p cbr -e 210 -c 2 -a 0 -i 29 -k AGT
+ -t 0.108750000 -s 4 -d 6 -p cbr -e 230 -c 2 -a 0 -i 29 -k RTR 
- -t 0.108750000 -s 4 -d 6 -p cbr -e 230 -c 2 -a 0 -i 29 -k RTR
h -t 0.108750000 -s 4 -d 6 -p cbr -e 230 -c 2 -a 0 -i 29 -k RTR
+ -t 0.110923485 -s 6 -d 22 -p cbr -e 230 -c 2 -a 0 -i 2 -k RTR 
- -t 0.110923485 -s 6 -d 22 -p cbr -e 230 -c 2 -a 0 -i 2 -k RTR
h -t 0.110923485 -s 6 -d 22 -p cbr -e 230 -c 2 -a 0 -i 2 -k RTR
+ -t 0.111816631 -s 4 -d 6 -p cbr -e 230 -c 2 -a 0 -i 8 -k RTR 
- -t 0.111816631 -s 4 -d 6 -p cbr -e 230 -c 2 -a 0 -i 8 -k RTR
h -t 0.111816631 -s 4 -d 6 -p cbr -e 230 -c 2 -a 0 -i 8 -k RTR
+ -t 0.112500000 -s 4 -d -1 -p cbr -e 210 -c 2 -a 0 -i 30 -k AGT 
- -t 0.112500000 -s 4 -d -1 -p cbr -e 210 -c 2 -a 0 -i 30 -k AGT
h -t 0.112500000 -s 4 -d -1 -p cbr -e 210 -c 2 -a 0 -i 30 -k AGT
+ -t 0.112500000 -s 4 -d 6 -p cbr -e 230 -c 2 -a 0 -i 30 -k RTR 
- -t 0.112500000 -s 4 -d 6 -p cbr -e 230 -c 2 -a 0 -i 30 -k RTR
h -t 0.112500000 -s 4 -d 6 -p cbr -e 230 -c 2 -a 0 -i 30 -k RTR
+ -t 0.114290176 -s 6 -d 22 -p cbr -e 230 -c 2 -a 0 -i 14 -k RTR 
- -t 0.114290176 -s 6 -d 22 -p cbr -e 230 -c 2 -a 0 -i 14 -k RTR
h -t 0.114290176 -s 6 -d 22 -p cbr -e 230 -c 2 -a 0 -i 14 -k RTR
+ -t 0.116250000 -s 4 -d -1 -p cbr -e 210 -c 2 -a 0 -i 31 -k AGT 
- -t 0.116250000 -s 4 -d -1 -p cbr -e 210 -c 2 -a 0 -i 31 -k AGT
h -t 0.116250000 -s 4 -d -1 -p cbr -e 210 -c 2 -a 0 -i 31 -k AGT
+ -t 0.116250000 -s 4 -d 6 -p cbr -e 230 -c 2 -a 0 -i 31 -k RTR 
- -t 0.116250000 -s 4 -d 6 -p cbr -e 230 -c 2 -a 0 -i 31 -k RTR
h -t 0.116250000 -s 4 -d 6 -p cbr -e 230 -c 2 -a 0 -i 31 -k RTR
+ -t 0.117776312 -s 22 -d 20 -p cbr -e 230 -c 2 -a 0 -i 13 -k RTR 
- -t 0.117776312 -s 22 -d 20 -p cbr -e 230 -c 2 -a 0 -i 13 -k RTR
h -t 0.117776312 -s 22 -d 20 -p cbr -e 230 -c 2 -a 0 -i 13 -k RTR
+ -t 0.120000000 -s 4 -d -1 -p cbr -e 210 -c 2 -a 0 -i 32 -k AGT 
- -t 0.120000000 -s 4 -d -1 -p cbr -e 210 -c 2 -a 0 -i 32 -k AGT
h -t 0.120000000 -s 4 -d -1 -p cbr -e 210 -c 2 -a 0 -i 32 -k AGT
+ -t 0.120000000 -s 4 -d 6 -p cbr -e 230 -c 2 -a 0 -i 32 -k RTR 
- -t 0.120000000 -s 4 -d 6 -p cbr -e 230 -c 2 -a 0 -i 32 -k RTR
h -t 0.120000000 -s 4 -d 6 -p cbr -e 230 -c 2 -a 0 -i 32 -k RTR
+ -t 0.121123160 -s 22 -d 20 -p cbr -e 230 -c 2 -a 0 -i 2 -k RTR 
- -t 0.121123160 -s 22 -d 20 -p cbr -e 230 -c 2 -a 0 -i 2 -k RTR
h -t 0.121123160 -s 22 -d 20 -p cbr -e 230 -c 2 -a 0 -i 2 -k RTR
+ -t 0.123750000 -s 4 -d -1 -p cbr -e 210 -c 2 -a 0 -i 33 -k AGT 
- -t 0.123750000 -s 4 -d -1 -p cbr -e 210 -c 2 -a 0 -i 33 -k AGT
h -t 0.123750000 -s 4 -d -1 -p cbr -e 210 -c 2 -a 0 -i 33 -k AGT
+ -t 0.123750000 -s 4 -d 6 -p cbr -e 230 -c 2 -a 0 -i 33 -k RTR 
- -t 0.123750000 -s 4 -d 6 -p cbr -e 230 -c 2 -a 0 -i 33 -k RTR
h -t 0.123750000 -s 4 -d 6 -p cbr -e 230 -c 2 -a 0 -i 33 -k RTR
+ -t 0.124530008 -s 22 -d 20 -p cbr -e 230 -c 2 -a 0 -i 14 -k RTR 
- -t 0.124530008 -s 22 -d 20 -p cbr -e 230 -c 2 -a 0 -i 14 -k RTR
h -t 0.124530008 -s 22 -d 20 -p cbr -e 230 -c 2 -a 0 -i 14 -k RTR
+ -t 0.127500000 -s 4 -d -1 -p cbr -e 210 -c 2 -a 0 -i 34 -k AGT 
- -t 0.127500000 -s 4 -d -1 -p cbr -e 210 -c 2 -a 0 -i 34 -k AGT
h -t 0.127500000 -s 4 -d -1 -p cbr -e 210 -c 2 -a 0 -i 34 -k AGT
+ -t 0.127500000 -s 4 -d 6 -p cbr -e 230 -c 2 -a 0 -i 34 -k RTR 
- -t 0.127500000 -s 4 -d 6 -p cbr -e 230 -c 2 -a 0 -i 34 -k RTR
h -t 0.127500000 -s 4 -d 6 -p cbr -e 230 -c 2 -a 0 -i 34 -k RTR
r -t 0.127914897 -s 20 -d 20 -p cbr -e 230 -c 2 -a 0 -i 13 -k AGT
+ -t 0.131250000 -s 4 -d -1 -p cbr -e 210 -c 2 -a 0 -i 35 -k AGT 
- -t 0.131250000 -s 4 -d -1 -p cbr -e 210 -c 2 -a 0 -i 35 -k AGT
h -t 0.131250000 -s 4 -d -1 -p cbr -e 210 -c 2 -a 0 -i 35 -k AGT