s 0.000000000 _4_ AGT  --- 0 cbr 210 [0 0 0 0] [energy 100.000000 ei 0.000 es 0.000 et 0.000 er 0.000] ------- [4:0 20:0 32 0] [0] 0 0
r 0.000000000 _4_ RTR  --- 0 cbr 210 [0 0 0 0] [energy 100.000000 ei 0.000 es 0.000 et 0.000 er 0.000] ------- [4:0 20:0 32 0] [0] 0 0
s 0.000000000 _4_ RTR  --- 0 AODV 48 [0 0 0 0] [energy 100.000000 ei 0.000 es 0.000 et 0.000 er 0.000] ------- [4:255 -1:255 30 0] [0x2 1 1 [20 0] [4 4]] (REQUEST)
N -t 0.000535 -n 16 -e 99.999746
N -t 0.000536 -n 0 -e 99.999746
N -t 0.000536 -n 13 -e 99.999746
N -t 0.000536 -n 6 -e 99.999746
N -t 0.000536 -n 3 -e 99.999746
N -t 0.000536 -n 22 -e 99.999746
N -t 0.000536 -n 11 -e 99.999746
N -t 0.000536 -n 20 -e 99.999746
N -t 0.000537 -n 10 -e 99.999746
N -t 0.000537 -n 15 -e 99.999746
N -t 0.000537 -n 1 -e 99.999746
r 0.001408198 _16_ RTR  --- 0 AODV 48 [0 ffffffff 4 800] [energy 99.999746 ei 0.000 es 0.000 et 0.000 er 0.000] ------- [4:255 -1:255 30 0] [0x2 1 1 [20 0] [4 4]] (REQUEST)
r 0.001408529 _0_ RTR  --- 0 AODV 48 [0 ffffffff 4 800] [energy 99.999746 ei 0.000 es 0.000 et 0.000 er 0.000] ------- [4:255 -1:255 30 0] [0x2 1 1 [20 0] [4 4]] (REQUEST)
r 0.001408613 _13_ RTR  --- 0 AODV 48 [0 ffffffff 4 800] [energy 99.999746 ei 0.000 es 0.000 et 0.000 er 0.000] ------- [4:255 -1:255 30 0] [0x2 1 1 [20 0] [4 4]] (REQUEST)
r 0.001408673 _6_ RTR  --- 0 AODV 48 [0 ffffffff 4 800] [energy 99.999746 ei 0.000 es 0.000 et 0.000 er 0.000] ------- [4:255 -1:255 30 0] [0x2 1 1 [20 0] [4 4]] (REQUEST)
s 0.001550245 _16_ RTR  --- 0 AODV 48 [0 ffffffff 4 800] [energy 99.999746 ei 0.000 es 0.000 et 0.000 er 0.000] ------- [16:255 -1:255 29 0] [0x2 2 1 [20 0] [4 4]] (REQUEST)
N -t 0.001785 -n 4 -e 99.999237
N -t 0.001786 -n 13 -e 99.999491
N -t 0.001786 -n 6 -e 99.999491
N -t 0.001786 -n 0 -e 99.999491
N -t 0.001786 -n 22 -e 99.999491
N -t 0.001786 -n 3 -e 99.999491
N -t 0.001787 -n 20 -e 99.999491
N -t 0.001787 -n 11 -e 99.999491
N -t 0.001787 -n 10 -e 99.999491
N -t 0.001787 -n 15 -e 99.999491
N -t 0.001787 -n 1 -e 99.999491
N -t 0.001787 -n 23 -e 99.999746
s 0.002289755 _0_ RTR  --- 0 AODV 48 [0 ffffffff 4 800] [energy 99.999491 ei 0.000 es 0.000 et 0.000 er 0.001] ------- [0:255 -1:255 29 0] [0x2 2 1 [20 0] [4 4]] (REQUEST)
r 0.002658442 _4_ RTR  --- 0 AODV 48 [0 ffffffff 10 800] [energy 99.999237 ei 0.000 es 0.000 et 0.001 er 0.000] ------- [16:255 -1:255 29 0] [0x2 2 1 [20 0] [4 4]] (REQUEST)
r 0.002658719 _13_ RTR  --- 0 AODV 48 [0 ffffffff 10 800] [energy 99.999491 ei 0.000 es 0.000 et 0.000 er 0.001] ------- [16:255 -1:255 29 0] [0x2 2 1 [20 0] [4 4]] (REQUEST)
r 0.002658776 _6_ RTR  --- 0 AODV 48 [0 ffffffff 10 800] [energy 99.999491 ei 0.000 es 0.000 et 0.000 er 0.001] ------- [16:255 -1:255 29 0] [0x2 2 1 [20 0] [4 4]] (REQUEST)
r 0.002658782 _0_ RTR  --- 0 AODV 48 [0 ffffffff 10 800] [energy 99.999491 ei 0.000 es 0.000 et 0.000 er 0.001] ------- [16:255 -1:255 29 0] [0x2 2 1 [20 0] [4 4]] (REQUEST)
N -t 0.002884 -n 6 -e 99.999237
N -t 0.002884 -n 4 -e 99.998982
N -t 0.002884 -n 16 -e 99.998982
N -t 0.002884 -n 3 -e 99.999237
N -t 0.002885 -n 11 -e 99.999237
N -t 0.002885 -n 13 -e 99.999237
N -t 0.002885 -n 10 -e 99.999237
N -t 0.002885 -n 22 -e 99.999237
N -t 0.002885 -n 1 -e 99.999237
N -t 0.002885 -n 20 -e 99.999237
N -t 0.002885 -n 18 -e 99.999746
N -t 0.002885 -n 23 -e 99.999491
N -t 0.002886 -n 8 -e 99.999746
s 0.003750000 _4_ AGT  --- 1 cbr 210 [0 0 0 0] [energy 99.998982 ei 0.000 es 0.000 et 0.001 er 0.001] ------- [4:0 20:0 32 0] [1] 0 0
r 0.003750000 _4_ RTR  --- 1 cbr 210 [0 0 0 0] [energy 99.998982 ei 0.000 es 0.000 et 0.001 er 0.001] ------- [4:0 20:0 32 0] [1] 0 0
r 0.003757247 _6_ RTR  --- 0 AODV 48 [0 ffffffff 0 800] [energy 99.999237 ei 0.000 es 0.000 et 0.000 er 0.001] ------- [0:255 -1:255 29 0] [0x2 2 1 [20 0] [4 4]] (REQUEST)
r 0.003757310 _4_ RTR  --- 0 AODV 48 [0 ffffffff 0 800] [energy 99.998982 ei 0.000 es 0.000 et 0.001 er 0.001] ------- [0:255 -1:255 29 0] [0x2 2 1 [20 0] [4 4]] (REQUEST)
r 0.003757319 _16_ RTR  --- 0 AODV 48 [0 ffffffff 0 800] [energy 99.998982 ei 0.000 es 0.000 et 0.001 er 0.001] ------- [0:255 -1:255 29 0] [0x2 2 1 [20 0] [4 4]] (REQUEST)
r 0.003757441 _3_ RTR  --- 0 AODV 48 [0 ffffffff 0 800] [energy 99.999237 ei 0.000 es 0.000 et 0.000 er 0.001] ------- [0:255 -1:255 29 0] [0x2 2 1 [20 0] [4 4]] (REQUEST)
r 0.003757555 _11_ RTR  --- 0 AODV 48 [0 ffffffff 0 800] [energy 99.999237 ei 0.000 es 0.000 et 0.000 er 0.001] ------- [0:255 -1:255 29 0] [0x2 2 1 [20 0] [4 4]] (REQUEST)
s 0.005820347 _13_ RTR  --- 0 AODV 48 [0 ffffffff 4 800] [energy 99.999237 ei 0.000 es 0.000 et 0.000 er 0.001] ------- [13:255 -1:255 29 0] [0x2 2 1 [20 0] [4 4]] (REQUEST)
N -t 0.005936 -n 16 -e 99.998728
N -t 0.005936 -n 4 -e 99.998728
N -t 0.005936 -n 6 -e 99.998982
N -t 0.005936 -n 22 -e 99.998982
N -t 0.005936 -n 0 -e 99.998728
N -t 0.005936 -n 15 -e 99.999237
N -t 0.005936 -n 20 -e 99.998982
N -t 0.005937 -n 3 -e 99.998982
N -t 0.005937 -n 9 -e 99.999746
N -t 0.005937 -n 1 -e 99.998982
N -t 0.005937 -n 11 -e 99.998982
N -t 0.005937 -n 10 -e 99.998982
r 0.006808821 _16_ RTR  --- 0 AODV 48 [0 ffffffff d 800] [energy 99.998728 ei 0.000 es 0.000 et 0.001 er 0.001] ------- [13:255 -1:255 29 0] [0x2 2 1 [20 0] [4 4]] (REQUEST)
r 0.006808959 _4_ RTR  --- 0 AODV 48 [0 ffffffff d 800] [energy 99.998728 ei 0.000 es 0.000 et 0.001 er 0.001] ------- [13:255 -1:255 29 0] [0x2 2 1 [20 0] [4 4]] (REQUEST)
r 0.006809146 _6_ RTR  --- 0 AODV 48 [0 ffffffff d 800] [energy 99.998982 ei 0.000 es 0.000 et 0.000 er 0.001] ------- [13:255 -1:255 29 0] [0x2 2 1 [20 0] [4 4]] (REQUEST)
s 0.006848232 _3_ RTR  --- 0 AODV 48 [0 ffffffff 0 800] [energy 99.998982 ei 0.000 es 0.000 et 0.000 er 0.001] ------- [3:255 -1:255 28 0] [0x2 3 1 [20 0] [4 4]] (REQUEST)
N -t 0.007359 -n 10 -e 99.998728
N -t 0.007359 -n 11 -e 99.998728
N -t 0.007359 -n 6 -e 99.998728
N -t 0.007359 -n 0 -e 99.998474
N -t 0.007360 -n 1 -e 99.998728
N -t 0.007360 -n 18 -e 99.999491
N -t 0.007360 -n 16 -e 99.998474
N -t 0.007360 -n 8 -e 99.999491
N -t 0.007360 -n 22 -e 99.998728
N -t 0.007360 -n 4 -e 99.998474
N -t 0.007360 -n 23 -e 99.999237
N -t 0.007360 -n 5 -e 99.999746
N -t 0.007360 -n 20 -e 99.998728
N -t 0.007360 -n 13 -e 99.998474
N -t 0.007360 -n 24 -e 99.999746
s 0.007500000 _4_ AGT  --- 2 cbr 210 [0 0 0 0] [energy 99.998474 ei 0.000 es 0.000 et 0.001 er 0.001] ------- [4:0 20:0 32 0] [2] 0 0
r 0.007500000 _4_ RTR  --- 2 cbr 210 [0 0 0 0] [energy 99.998474 ei 0.000 es 0.000 et 0.001 er 0.001] ------- [4:0 20:0 32 0] [2] 0 0
r 0.008232219 _10_ RTR  --- 0 AODV 48 [0 ffffffff 3 800] [energy 99.998728 ei 0.000 es 0.000 et 0.000 er 0.001] ------- [3:255 -1:255 28 0] [0x2 3 1 [20 0] [4 4]] (REQUEST)
r 0.008232238 _11_ RTR  --- 0 AODV 48 [0 ffffffff 3 800] [energy 99.998728 ei 0.000 es 0.000 et 0.000 er 0.001] ------- [3:255 -1:255 28 0] [0x2 3 1 [20 0] [4 4]] (REQUEST)
r 0.008232334 _6_ RTR  --- 0 AODV 48 [0 ffffffff 3 800] [energy 99.998728 ei 0.000 es 0.000 et 0.000 er 0.001] ------- [3:255 -1:255 28 0] [0x2 3 1 [20 0] [4 4]] (REQUEST)
r 0.008232399 _0_ RTR  --- 0 AODV 48 [0 ffffffff 3 800] [energy 99.998474 ei 0.000 es 0.000 et 0.001 er 0.001] ------- [3:255 -1:255 28 0] [0x2 3 1 [20 0] [4 4]] (REQUEST)
s 0.009400227 _6_ RTR  --- 0 AODV 48 [0 ffffffff 4 800] [energy 99.998728 ei 0.000 es 0.000 et 0.000 er 0.001] ------- [6:255 -1:255 29 0] [0x2 2 1 [20 0] [4 4]] (REQUEST)
N -t 0.009636 -n 0 -e 99.998219
N -t 0.009636 -n 16 -e 99.998219
N -t 0.009636 -n 3 -e 99.998219
N -t 0.009636 -n 4 -e 99.998219
N -t 0.009636 -n 22 -e 99.998474
N -t 0.009636 -n 13 -e 99.998219
N -t 0.009636 -n 20 -e 99.998474
N -t 0.009636 -n 11 -e 99.998474
N -t 0.009636 -n 10 -e 99.998474
N -t 0.009636 -n 1 -e 99.998474
N -t 0.009637 -n 23 -e 99.998982
N -t 0.009637 -n 24 -e 99.999491
N -t 0.009637 -n 18 -e 99.999237
N -t 0.009637 -n 8 -e 99.999237
N -t 0.009637 -n 5 -e 99.999491
N -t 0.009637 -n 15 -e 99.998982
N -t 0.009637 -n 9 -e 99.999491
r 0.010508693 _0_ RTR  --- 0 AODV 48 [0 ffffffff 6 800] [energy 99.998219 ei 0.000 es 0.000 et 0.001 er 0.001] ------- [6:255 -1:255 29 0] [0x2 2 1 [20 0] [4 4]] (REQUEST)
r 0.010508759 _16_ RTR  --- 0 AODV 48 [0 ffffffff 6 800] [energy 99.998219 ei 0.000 es 0.000 et 0.001 er 0.001] ------- [6:255 -1:255 29 0] [0x2 2 1 [20 0] [4 4]] (REQUEST)
r 0.010508822 _3_ RTR  --- 0 AODV 48 [0 ffffffff 6 800] [energy 99.998219 ei 0.000 es 0.000 et 0.001 er 0.001] ------- [6:255 -1:255 29 0] [0x2 2 1 [20 0] [4 4]] (REQUEST)
r 0.010508900 _4_ RTR  --- 0 AODV 48 [0 ffffffff 6 800] [energy 99.998219 ei 0.000 es 0.000 et 0.001 er 0.001] ------- [6:255 -1:255 29 0] [0x2 2 1 [20 0] [4 4]] (REQUEST)
r 0.010508939 _22_ RTR  --- 0 AODV 48 [0 ffffffff 6 800] [energy 99.998474 ei 0.000 es 0.000 et 0.000 er 0.002] ------- [6:255 -1:255 29 0] [0x2 2 1 [20 0] [4 4]] (REQUEST)
r 0.010509026 _13_ RTR  --- 0 AODV 48 [0 ffffffff 6 800] [energy 99.998219 ei 0.000 es 0.000 et 0.001 er 0.001] ------- [6:255 -1:255 29 0] [0x2 2 1 [20 0] [4 4]] (REQUEST)
s 0.011250000 _4_ AGT  --- 3 cbr 210 [0 0 0 0] [energy 99.998219 ei 0.000 es 0.000 et 0.001 er 0.001] ------- [4:0 20:0 32 0] [3] 0 0
r 0.011250000 _4_ RTR  --- 3 cbr 210 [0 0 0 0] [energy 99.998219 ei 0.000 es 0.000 et 0.001 er 0.001] ------- [4:0 20:0 32 0] [3] 0 0
s 0.011450328 _22_ RTR  --- 0 AODV 48 [0 ffffffff 6 800] [energy 99.998474 ei 0.000 es 0.000 et 0.000 er 0.002] ------- [22:255 -1:255 28 0] [0x2 3 1 [20 0] [4 4]] (REQUEST)
N -t 0.011846 -n 20 -e 99.998219
N -t 0.011846 -n 6 -e 99.997965
N -t 0.011846 -n 13 -e 99.997965
N -t 0.011846 -n 1 -e 99.998219
N -t 0.011846 -n 16 -e 99.997965
N -t 0.011846 -n 23 -e 99.998728
N -t 0.011846 -n 24 -e 99.999237
N -t 0.011846 -n 9 -e 99.999237
N -t 0.011846 -n 15 -e 99.998728
N -t 0.011846 -n 3 -e 99.997965
N -t 0.011847 -n 0 -e 99.997965
N -t 0.011847 -n 4 -e 99.997965
N -t 0.011847 -n 10 -e 99.998219
N -t 0.011847 -n 21 -e 99.999746
N -t 0.011847 -n 11 -e 99.998219
N -t 0.011847 -n 5 -e 99.999237
N -t 0.011847 -n 18 -e 99.998982
N -t 0.011847 -n 7 -e 99.999746
N -t 0.011847 -n 12 -e 99.999746
N -t 0.011847 -n 19 -e 99.999746
N -t 0.011847 -n 8 -e 99.998982
s 0.012120790 _11_ RTR  --- 0 AODV 48 [0 ffffffff 0 800] [energy 99.998219 ei 0.000 es 0.000 et 0.000 er 0.002] ------- [11:255 -1:255 28 0] [0x2 3 1 [20 0] [4 4]] (REQUEST)
r 0.012718624 _20_ RTR  --- 0 AODV 48 [0 ffffffff 16 800] [energy 99.998219 ei 0.000 es 0.000 et 0.000 er 0.002] ------- [22:255 -1:255 28 0] [0x2 3 1 [20 0] [4 4]] (REQUEST)
s 0.012718624 _20_ RTR  --- 0 AODV 44 [0 0 0 0] [energy 99.998219 ei 0.000 es 0.000 et 0.000 er 0.002] ------- [20:255 4:255 30 22] [0x4 1 [20 4] 10.000000] (REPLY)
r 0.012719040 _6_ RTR  --- 0 AODV 48 [0 ffffffff 16 800] [energy 99.997965 ei 0.000 es 0.000 et 0.001 er 0.002] ------- [22:255 -1:255 28 0] [0x2 3 1 [20 0] [4 4]] (REQUEST)
N -t 0.012794 -n 22 -e 99.997758
N -t 0.012794 -n 1 -e 99.998013
N -t 0.012794 -n 24 -e 99.999030
N -t 0.012794 -n 23 -e 99.998522
N -t 0.012795 -n 9 -e 99.999030
N -t 0.012795 -n 6 -e 99.997758
N -t 0.012795 -n 15 -e 99.998522
N -t 0.012795 -n 13 -e 99.997758
N -t 0.012795 -n 21 -e 99.999539
N -t 0.012795 -n 3 -e 99.997758
N -t 0.012795 -n 16 -e 99.997758
N -t 0.012795 -n 7 -e 99.999539
N -t 0.012795 -n 10 -e 99.998013
N -t 0.012795 -n 12 -e 99.999539
N -t 0.012795 -n 19 -e 99.999539
N -t 0.012795 -n 0 -e 99.997758
N -t 0.012795 -n 5 -e 99.999030
N -t 0.012795 -n 4 -e 99.997758
N -t 0.012795 -n 18 -e 99.998776
N -t 0.012795 -n 2 -e 99.999794
N -t 0.012795 -n 8 -e 99.998776
N -t 0.012795 -n 11 -e 99.998013
N -t 0.013712 -n 20 -e 99.997701
N -t 0.013713 -n 6 -e 99.997653
N -t 0.013713 -n 13 -e 99.997653
N -t 0.013713 -n 1 -e 99.997907
N -t 0.013713 -n 16 -e 99.997653
N -t 0.013713 -n 23 -e 99.998416
N -t 0.013713 -n 24 -e 99.998925
N -t 0.013713 -n 9 -e 99.998925
N -t 0.013713 -n 15 -e 99.998416
N -t 0.013713 -n 3 -e 99.997653
N -t 0.013713 -n 0 -e 99.997653
N -t 0.013713 -n 4 -e 99.997653
N -t 0.013713 -n 10 -e 99.997907
N -t 0.013713 -n 21 -e 99.999434
N -t 0.013714 -n 11 -e 99.997907
N -t 0.013714 -n 5 -e 99.998925
N -t 0.013714 -n 18 -e 99.998670
N -t 0.013714 -n 7 -e 99.999434
N -t 0.013714 -n 12 -e 99.999434
N -t 0.013714 -n 19 -e 99.999434
N -t 0.013714 -n 8 -e 99.998670
N -t 0.014075 -n 22 -e 99.997456
N -t 0.014075 -n 1 -e 99.997816
N -t 0.014075 -n 24 -e 99.998834
N -t 0.014075 -n 23 -e 99.998325
N -t 0.014075 -n 9 -e 99.998834
N -t 0.014075 -n 6 -e 99.997562
N -t 0.014075 -n 15 -e 99.998325
N -t 0.014075 -n 13 -e 99.997562
N -t 0.014075 -n 21 -e 99.999342
N -t 0.014075 -n 3 -e 99.997562
N -t 0.014076 -n 16 -e 99.997562
N -t 0.014076 -n 7 -e 99.999342
N -t 0.014076 -n 10 -e 99.997816
N -t 0.014076 -n 12 -e 99.999342
N -t 0.014076 -n 19 -e 99.999342
N -t 0.014076 -n 0 -e 99.997562
N -t 0.014076 -n 5 -e 99.998834
N -t 0.014076 -n 4 -e 99.997562
N -t 0.014076 -n 18 -e 99.998579
N -t 0.014076 -n 2 -e 99.999702
N -t 0.014076 -n 8 -e 99.998579
N -t 0.014076 -n 11 -e 99.997816
N -t 0.014389 -n 20 -e 99.997312
N -t 0.014389 -n 6 -e 99.997355
N -t 0.014389 -n 13 -e 99.997355
N -t 0.014389 -n 1 -e 99.997610
N -t 0.014390 -n 16 -e 99.997355
N -t 0.014390 -n 23 -e 99.998118
N -t 0.014390 -n 24 -e 99.998627
N -t 0.014390 -n 9 -e 99.998627
N -t 0.014390 -n 15 -e 99.998118
N -t 0.014390 -n 3 -e 99.997355
N -t 0.014390 -n 0 -e 99.997355
N -t 0.014390 -n 4 -e 99.997355
N -t 0.014390 -n 10 -e 99.997610
N -t 0.014390 -n 21 -e 99.999136
N -t 0.014390 -n 11 -e 99.997610
N -t 0.014390 -n 5 -e 99.998627
N -t 0.014390 -n 18 -e 99.998373
N -t 0.014390 -n 7 -e 99.999136
N -t 0.014390 -n 12 -e 99.999136
N -t 0.014390 -n 19 -e 99.999136
N -t 0.014390 -n 8 -e 99.998373
s 0.015000000 _4_ AGT  --- 4 cbr 210 [0 0 0 0] [energy 99.997355 ei 0.000 es 0.000 et 0.001 er 0.002] ------- [4:0 20:0 32 0] [4] 0 0
r 0.015000000 _4_ RTR  --- 4 cbr 210 [0 0 0 0] [energy 99.997355 ei 0.000 es 0.000 et 0.001 er 0.002] ------- [4:0 20:0 32 0] [4] 0 0
N -t 0.015087 -n 22 -e 99.996952
N -t 0.015088 -n 1 -e 99.997518
N -t 0.015088 -n 24 -e 99.998536
N -t 0.015088 -n 23 -e 99.998027
N -t 0.015088 -n 9 -e 99.998536
N -t 0.015088 -n 6 -e 99.997264
N -t 0.015088 -n 15 -e 99.998027
N -t 0.015088 -n 13 -e 99.997264
N -t 0.015088 -n 21 -e 99.999045
N -t 0.015088 -n 3 -e 99.997264
N -t 0.015088 -n 16 -e 99.997264
N -t 0.015088 -n 7 -e 99.999045
N -t 0.015088 -n 10 -e 99.997518
N -t 0.015088 -n 12 -e 99.999045
N -t 0.015088 -n 19 -e 99.999045
N -t 0.015088 -n 0 -e 99.997264
N -t 0.015088 -n 5 -e 99.998536
N -t 0.015088 -n 4 -e 99.997264
N -t 0.015088 -n 18 -e 99.998282
N -t 0.015088 -n 2 -e 99.999611
N -t 0.015089 -n 8 -e 99.998282
N -t 0.015089 -n 11 -e 99.997518
N -t 0.015501 -n 22 -e 99.996846
N -t 0.015502 -n 1 -e 99.997413
N -t 0.015502 -n 24 -e 99.998430
N -t 0.015502 -n 23 -e 99.997922
N -t 0.015502 -n 9 -e 99.998430
N -t 0.015502 -n 6 -e 99.997158
N -t 0.015502 -n 15 -e 99.997922
N -t 0.015502 -n 13 -e 99.997158
N -t 0.015502 -n 21 -e 99.998939
N -t 0.015502 -n 3 -e 99.997158
N -t 0.015502 -n 16 -e 99.997158
N -t 0.015502 -n 7 -e 99.998939
N -t 0.015502 -n 10 -e 99.997413
N -t 0.015502 -n 12 -e 99.998939
N -t 0.015502 -n 19 -e 99.998939
N -t 0.015502 -n 0 -e 99.997158
N -t 0.015502 -n 5 -e 99.998430
N -t 0.015502 -n 4 -e 99.997158
N -t 0.015502 -n 18 -e 99.998176
N -t 0.015502 -n 2 -e 99.999506
N -t 0.015503 -n 8 -e 99.998176
N -t 0.015503 -n 11 -e 99.997413
N -t 0.015863 -n 20 -e 99.996827
N -t 0.015864 -n 6 -e 99.997067
N -t 0.015864 -n 13 -e 99.997067
N -t 0.015864 -n 1 -e 99.997322
N -t 0.015864 -n 16 -e 99.997067
N -t 0.015864 -n 23 -e 99.997830
N -t 0.015864 -n 24 -e 99.998339
N -t 0.015864 -n 9 -e 99.998339
N -t 0.015864 -n 15 -e 99.997830
N -t 0.015864 -n 3 -e 99.997067
N -t 0.015864 -n 0 -e 99.997067
N -t 0.015864 -n 4 -e 99.997067
N -t 0.015864 -n 10 -e 99.997322
N -t 0.015865 -n 21 -e 99.998848
N -t 0.015865 -n 11 -e 99.997322
N -t 0.015865 -n 5 -e 99.998339
N -t 0.015865 -n 18 -e 99.998085
N -t 0.015865 -n 7 -e 99.998848
N -t 0.015865 -n 12 -e 99.998848
N -t 0.015865 -n 19 -e 99.998848
N -t 0.015865 -n 8 -e 99.998085
N -t 0.016178 -n 22 -e 99.996419
N -t 0.016178 -n 1 -e 99.997077
N -t 0.016178 -n 24 -e 99.998094
N -t 0.016178 -n 23 -e 99.997586
N -t 0.016178 -n 9 -e 99.998094
N -t 0.016178 -n 6 -e 99.996822
N -t 0.016179 -n 15 -e 99.997586
N -t 0.016179 -n 13 -e 99.996822
N -t 0.016179 -n 21 -e 99.998603
N -t 0.016179 -n 3 -e 99.996822
N -t 0.016179 -n 16 -e 99.996822
N -t 0.016179 -n 7 -e 99.998603
N -t 0.016179 -n 10 -e 99.997077
N -t 0.016179 -n 12 -e 99.998603
N -t 0.016179 -n 19 -e 99.998603
N -t 0.016179 -n 0 -e 99.996822
N -t 0.016179 -n 5 -e 99.998094
N -t 0.016179 -n 4 -e 99.996822
N -t 0.016179 -n 18 -e 99.997840
N -t 0.016179 -n 2 -e 99.999261
N -t 0.016179 -n 8 -e 99.997840
N -t 0.016179 -n 11 -e 99.997077
s 0.016829496 _10_ RTR  --- 0 AODV 48 [0 ffffffff 3 800] [energy 99.997077 ei 0.000 es 0.000 et 0.000 er 0.003] ------- [10:255 -1:255 27 0] [0x2 4 1 [20 0] [4 4]] (REQUEST)
N -t 0.017004 -n 20 -e 99.996246
N -t 0.017004 -n 6 -e 99.996731
N -t 0.017005 -n 13 -e 99.996731
N -t 0.017005 -n 1 -e 99.996986
N -t 0.017005 -n 16 -e 99.996731
N -t 0.017005 -n 23 -e 99.997494
N -t 0.017005 -n 24 -e 99.998003
N -t 0.017005 -n 9 -e 99.998003
N -t 0.017005 -n 15 -e 99.997494
N -t 0.017005 -n 3 -e 99.996731
N -t 0.017005 -n 0 -e 99.996731
N -t 0.017005 -n 4 -e 99.996731
N -t 0.017005 -n 10 -e 99.996986
N -t 0.017005 -n 21 -e 99.998512
N -t 0.017005 -n 11 -e 99.996986
N -t 0.017005 -n 5 -e 99.998003
N -t 0.017005 -n 18 -e 99.997749
N -t 0.017005 -n 7 -e 99.998512
N -t 0.017005 -n 12 -e 99.998512
N -t 0.017005 -n 19 -e 99.998512
N -t 0.017005 -n 8 -e 99.997749
r 0.017018698 _22_ RTR  --- 0 AODV 44 [13a 16 14 800] [energy 99.996237 ei 0.000 es 0.000 et 0.001 er 0.002] ------- [20:255 4:255 30 22] [0x4 1 [20 4] 10.000000] (REPLY)
f 0.017018698 _22_ RTR  --- 0 AODV 44 [13a 16 14 800] [energy 99.996237 ei 0.000 es 0.000 et 0.001 er 0.002] ------- [20:255 4:255 29 6] [0x4 2 [20 4] 10.000000] (REPLY)
N -t 0.017738 -n 20 -e 99.996040
N -t 0.017738 -n 6 -e 99.996525
N -t 0.017739 -n 13 -e 99.996525
N -t 0.017739 -n 1 -e 99.996779
N -t 0.017739 -n 16 -e 99.996525
N -t 0.017739 -n 23 -e 99.997288
N -t 0.017739 -n 24 -e 99.997797
N -t 0.017739 -n 9 -e 99.997797
N -t 0.017739 -n 15 -e 99.997288
N -t 0.017739 -n 3 -e 99.996525
N -t 0.017739 -n 0 -e 99.996525
N -t 0.017739 -n 4 -e 99.996525
N -t 0.017739 -n 10 -e 99.996779
N -t 0.017739 -n 21 -e 99.998306
N -t 0.017739 -n 11 -e 99.996779
N -t 0.017739 -n 5 -e 99.997797
N -t 0.017739 -n 18 -e 99.997542
N -t 0.017739 -n 7 -e 99.998306
N -t 0.017739 -n 12 -e 99.998306
N -t 0.017739 -n 19 -e 99.998306
N -t 0.017739 -n 8 -e 99.997542
s 0.018750000 _4_ AGT  --- 5 cbr 210 [0 0 0 0] [energy 99.996525 ei 0.000 es 0.000 et 0.001 er 0.003] ------- [4:0 20:0 32 0] [5] 0 0
r 0.018750000 _4_ RTR  --- 5 cbr 210 [0 0 0 0] [energy 99.996525 ei 0.000 es 0.000 et 0.001 er 0.003] ------- [4:0 20:0 32 0] [5] 0 0
N -t 0.019021 -n 3 -e 99.996270
N -t 0.019022 -n 18 -e 99.997288
N -t 0.019022 -n 8 -e 99.997288
N -t 0.019022 -n 1 -e 99.996525
N -t 0.019022 -n 11 -e 99.996525
N -t 0.019022 -n 5 -e 99.997542
N -t 0.019022 -n 0 -e 99.996419
N -t 0.019022 -n 23 -e 99.997034
N -t 0.019022 -n 16 -e 99.996419
N -t 0.019022 -n 6 -e 99.996165
N -t 0.019022 -n 3 -e 99.996270
N -t 0.019022 -n 4 -e 99.996419
N -t 0.019022 -n 22 -e 99.995718
N -t 0.019022 -n 0 -e 99.996270
N -t 0.019022 -n 24 -e 99.997542
N -t 0.019022 -n 13 -e 99.996419
N -t 0.019022 -n 22 -e 99.995570
N -t 0.019022 -n 20 -e 99.995786
N -t 0.019022 -n 20 -e 99.995786
N -t 0.019022 -n 11 -e 99.996525
N -t 0.019022 -n 10 -e 99.996270
N -t 0.019022 -n 1 -e 99.996525
N -t 0.019022 -n 2 -e 99.999006
N -t 0.019023 -n 16 -e 99.996270
N -t 0.019023 -n 14 -e 99.999746
N -t 0.019023 -n 12 -e 99.998051
N -t 0.019023 -n 4 -e 99.996270
N -t 0.019023 -n 7 -e 99.998051
N -t 0.019023 -n 23 -e 99.997034
N -t 0.019023 -n 13 -e 99.996270
N -t 0.019023 -n 24 -e 99.997542
N -t 0.019023 -n 18 -e 99.997288
N -t 0.019023 -n 8 -e 99.997288
N -t 0.019023 -n 5 -e 99.997542
N -t 0.019023 -n 15 -e 99.997182
N -t 0.019023 -n 9 -e 99.997691
r 0.019894508 _18_ RTR  --- 0 AODV 48 [0 ffffffff a 800] [energy 99.997288 ei 0.000 es 0.000 et 0.000 er 0.003] ------- [10:255 -1:255 27 0] [0x2 4 1 [20 0] [4 4]] (REQUEST)
r 0.019894573 _8_ RTR  --- 0 AODV 48 [0 ffffffff a 800] [energy 99.997288 ei 0.000 es 0.000 et 0.000 er 0.003] ------- [10:255 -1:255 27 0] [0x2 4 1 [20 0] [4 4]] (REQUEST)
r 0.019894729 _5_ RTR  --- 0 AODV 48 [0 ffffffff a 800] [energy 99.997542 ei 0.000 es 0.000 et 0.000 er 0.002] ------- [10:255 -1:255 27 0] [0x2 4 1 [20 0] [4 4]] (REQUEST)
N -t 0.020304 -n 3 -e 99.996016
N -t 0.020304 -n 10 -e 99.996016
N -t 0.020304 -n 0 -e 99.996016
N -t 0.020305 -n 6 -e 99.995910
N -t 0.020305 -n 8 -e 99.997034
N -t 0.020305 -n 18 -e 99.997034
N -t 0.020305 -n 16 -e 99.996016
N -t 0.020305 -n 4 -e 99.996016
N -t 0.020305 -n 1 -e 99.996270
N -t 0.020305 -n 5 -e 99.997288
N -t 0.020305 -n 22 -e 99.995315
N -t 0.020305 -n 23 -e 99.996779
N -t 0.020305 -n 13 -e 99.996016
N -t 0.020305 -n 14 -e 99.999491
N -t 0.020305 -n 20 -e 99.995531
r 0.021177211 _3_ RTR  --- 0 AODV 48 [0 ffffffff b 800] [energy 99.996016 ei 0.000 es 0.000 et 0.001 er 0.003] ------- [11:255 -1:255 28 0] [0x2 3 1 [20 0] [4 4]] (REQUEST)
r 0.021177438 _10_ RTR  --- 0 AODV 48 [0 ffffffff b 800] [energy 99.996016 ei 0.000 es 0.000 et 0.001 er 0.003] ------- [11:255 -1:255 28 0] [0x2 3 1 [20 0] [4 4]] (REQUEST)
r 0.021177486 _0_ RTR  --- 0 AODV 48 [0 ffffffff b 800] [energy 99.996016 ei 0.000 es 0.000 et 0.001 er 0.003] ------- [11:255 -1:255 28 0] [0x2 3 1 [20 0] [4 4]] (REQUEST)
N -t 0.021687 -n 0 -e 99.995910
N -t 0.021687 -n 16 -e 99.995910
N -t 0.021687 -n 3 -e 99.995910
N -t 0.021687 -n 4 -e 99.995910
N -t 0.021687 -n 22 -e 99.995210
N -t 0.021687 -n 13 -e 99.995910
N -t 0.021688 -n 20 -e 99.995426
N -t 0.021688 -n 11 -e 99.995910
N -t 0.021688 -n 10 -e 99.995910
N -t 0.021688 -n 1 -e 99.996165
N -t 0.021688 -n 23 -e 99.996674
N -t 0.021688 -n 24 -e 99.997437
N -t 0.021688 -n 18 -e 99.996928
N -t 0.021688 -n 8 -e 99.996928
N -t 0.021688 -n 5 -e 99.997182
N -t 0.021688 -n 15 -e 99.997077
N -t 0.021688 -n 9 -e 99.997586
N -t 0.022050 -n 20 -e 99.995334
N -t 0.022050 -n 6 -e 99.995608
N -t 0.022050 -n 13 -e 99.995819
N -t 0.022050 -n 1 -e 99.996074
N -t 0.022050 -n 16 -e 99.995819
N -t 0.022050 -n 23 -e 99.996582
N -t 0.022050 -n 24 -e 99.997346
N -t 0.022050 -n 9 -e 99.997494
N -t 0.022050 -n 15 -e 99.996986
N -t 0.022050 -n 3 -e 99.995819
N -t 0.022051 -n 0 -e 99.995819
N -t 0.022051 -n 4 -e 99.995819
N -t 0.022051 -n 10 -e 99.995819
N -t 0.022051 -n 21 -e 99.998214
N -t 0.022051 -n 11 -e 99.995819
N -t 0.022051 -n 5 -e 99.997091
N -t 0.022051 -n 18 -e 99.996837
N -t 0.022051 -n 7 -e 99.997960
N -t 0.022051 -n 12 -e 99.997960
N -t 0.022051 -n 19 -e 99.998214
N -t 0.022051 -n 8 -e 99.996837
N -t 0.022365 -n 0 -e 99.995613
N -t 0.022365 -n 16 -e 99.995613
N -t 0.022365 -n 3 -e 99.995613
N -t 0.022365 -n 4 -e 99.995613
N -t 0.022365 -n 22 -e 99.994821
N -t 0.022365 -n 13 -e 99.995613
N -t 0.022365 -n 20 -e 99.995128
N -t 0.022365 -n 11 -e 99.995613
N -t 0.022365 -n 10 -e 99.995613
N -t 0.022365 -n 1 -e 99.995867
N -t 0.022365 -n 23 -e 99.996376
N -t 0.022366 -n 24 -e 99.997139
N -t 0.022366 -n 18 -e 99.996630
N -t 0.022366 -n 8 -e 99.996630
N -t 0.022366 -n 5 -e 99.996885
N -t 0.022366 -n 15 -e 99.996779
N -t 0.022366 -n 9 -e 99.997288
s 0.022500000 _4_ AGT  --- 6 cbr 210 [0 0 0 0] [energy 99.995613 ei 0.000 es 0.000 et 0.001 er 0.004] ------- [4:0 20:0 32 0] [6] 0 0
r 0.022500000 _4_ RTR  --- 6 cbr 210 [0 0 0 0] [energy 99.995613 ei 0.000 es 0.000 et 0.001 er 0.004] ------- [4:0 20:0 32 0] [6] 0 0
N -t 0.023063 -n 20 -e 99.995037
N -t 0.023064 -n 6 -e 99.995104
N -t 0.023064 -n 13 -e 99.995521
N -t 0.023064 -n 1 -e 99.995776
N -t 0.023064 -n 16 -e 99.995521
N -t 0.023064 -n 23 -e 99.996285
N -t 0.023064 -n 24 -e 99.997048
N -t 0.023064 -n 9 -e 99.997197
N -t 0.023064 -n 15 -e 99.996688
N -t 0.023064 -n 3 -e 99.995522
N -t 0.023064 -n 0 -e 99.995522
N -t 0.023064 -n 4 -e 99.995521
N -t 0.023064 -n 10 -e 99.995522
N -t 0.023064 -n 21 -e 99.998123
N -t 0.023064 -n 11 -e 99.995522
N -t 0.023064 -n 5 -e 99.996794
N -t 0.023064 -n 18 -e 99.996539
N -t 0.023064 -n 7 -e 99.997869
N -t 0.023064 -n 12 -e 99.997869
N -t 0.023065 -n 19 -e 99.998123
N -t 0.023065 -n 8 -e 99.996539
N -t 0.023697 -n 20 -e 99.994931
N -t 0.023698 -n 6 -e 99.994998
N -t 0.023698 -n 13 -e 99.995416
N -t 0.023698 -n 1 -e 99.995670
N -t 0.023698 -n 16 -e 99.995416
N -t 0.023698 -n 23 -e 99.996179
N -t 0.023698 -n 24 -e 99.996942
N -t 0.023698 -n 9 -e 99.997091
N -t 0.023698 -n 15 -e 99.996582
N -t 0.023698 -n 3 -e 99.995416
N -t 0.023698 -n 0 -e 99.995416
N -t 0.023698 -n 4 -e 99.995416
N -t 0.023698 -n 10 -e 99.995416
N -t 0.023698 -n 21 -e 99.998018
N -t 0.023698 -n 11 -e 99.995416
N -t 0.023698 -n 5 -e 99.996688
N -t 0.023698 -n 18 -e 99.996434
N -t 0.023698 -n 7 -e 99.997763
N -t 0.023698 -n 12 -e 99.997763
N -t 0.023699 -n 19 -e 99.998018
N -t 0.023699 -n 8 -e 99.996434
N -t 0.024060 -n 0 -e 99.995325
N -t 0.024060 -n 16 -e 99.995325
N -t 0.024060 -n 3 -e 99.995325
N -t 0.024060 -n 4 -e 99.995325
N -t 0.024060 -n 22 -e 99.994336
N -t 0.024060 -n 13 -e 99.995325
N -t 0.024060 -n 20 -e 99.994840
N -t 0.024061 -n 11 -e 99.995325
N -t 0.024061 -n 10 -e 99.995325
N -t 0.024061 -n 1 -e 99.995579
N -t 0.024061 -n 23 -e 99.996088
N -t 0.024061 -n 24 -e 99.996851
N -t 0.024061 -n 18 -e 99.996342
N -t 0.024061 -n 8 -e 99.996342
N -t 0.024061 -n 5 -e 99.996597
N -t 0.024061 -n 15 -e 99.996491
N -t 0.024061 -n 9 -e 99.997000
N -t 0.024375 -n 20 -e 99.994595
N -t 0.024375 -n 6 -e 99.994571
N -t 0.024375 -n 13 -e 99.995080
N -t 0.024375 -n 1 -e 99.995334
N -t 0.024375 -n 16 -e 99.995080
N -t 0.024375 -n 23 -e 99.995843
N -t 0.024375 -n 24 -e 99.996606
N -t 0.024375 -n 9 -e 99.996755
N -t 0.024375 -n 15 -e 99.996246
N -t 0.024375 -n 3 -e 99.995080
N -t 0.024375 -n 0 -e 99.995080
N -t 0.024375 -n 4 -e 99.995080
N -t 0.024376 -n 10 -e 99.995080
N -t 0.024376 -n 21 -e 99.997773
N -t 0.024376 -n 11 -e 99.995080
N -t 0.024376 -n 5 -e 99.996352
N -t 0.024376 -n 18 -e 99.996098
N -t 0.024376 -n 7 -e 99.997518
N -t 0.024376 -n 12 -e 99.997518
N -t 0.024376 -n 19 -e 99.997773
N -t 0.024376 -n 8 -e 99.996098
N -t 0.025201 -n 0 -e 99.994989
N -t 0.025201 -n 16 -e 99.994989
N -t 0.025202 -n 3 -e 99.994989
N -t 0.025202 -n 4 -e 99.994989
N -t 0.025202 -n 22 -e 99.993755
N -t 0.025202 -n 13 -e 99.994989
N -t 0.025202 -n 20 -e 99.994504
N -t 0.025202 -n 11 -e 99.994989
N -t 0.025202 -n 10 -e 99.994989
N -t 0.025202 -n 1 -e 99.995243
N -t 0.025202 -n 23 -e 99.995752
N -t 0.025202 -n 24 -e 99.996515
N -t 0.025202 -n 18 -e 99.996006
N -t 0.025203 -n 8 -e 99.996006
N -t 0.025203 -n 5 -e 99.996261
N -t 0.025203 -n 15 -e 99.996155
N -t 0.025203 -n 9 -e 99.996664
r 0.025215959 _6_ RTR  --- 0 AODV 44 [13a 6 16 800] [energy 99.994389 ei 0.000 es 0.000 et 0.002 er 0.004] ------- [20:255 4:255 29 6] [0x4 2 [20 4] 10.000000] (REPLY)
f 0.025215959 _6_ RTR  --- 0 AODV 44 [13a 6 16 800] [energy 99.994389 ei 0.000 es 0.000 et 0.002 er 0.004] ------- [20:255 4:255 28 4] [0x4 3 [20 4] 10.000000] (REPLY)
N -t 0.025655 -n 0 -e 99.994782
N -t 0.025655 -n 16 -e 99.994782
N -t 0.025656 -n 3 -e 99.994782
N -t 0.025656 -n 4 -e 99.994782
N -t 0.025656 -n 22 -e 99.993549
N -t 0.025656 -n 13 -e 99.994782
N -t 0.025656 -n 20 -e 99.994298
N -t 0.025656 -n 11 -e 99.994782
N -t 0.025656 -n 10 -e 99.994782
N -t 0.025656 -n 1 -e 99.995037
N -t 0.025656 -n 23 -e 99.995546
N -t 0.025656 -n 24 -e 99.996309
N -t 0.025656 -n 18 -e 99.995800
N -t 0.025657 -n 8 -e 99.995800
N -t 0.025657 -n 5 -e 99.996054
N -t 0.025657 -n 15 -e 99.995949
N -t 0.025657 -n 9 -e 99.996458
s 0.026250000 _4_ AGT  --- 7 cbr 210 [0 0 0 0] [energy 99.994782 ei 0.000 es 0.000 et 0.001 er 0.005] ------- [4:0 20:0 32 0] [7] 0 0
r 0.026250000 _4_ RTR  --- 7 cbr 210 [0 0 0 0] [energy 99.994782 ei 0.000 es 0.000 et 0.001 er 0.005] ------- [4:0 20:0 32 0] [7] 0 0
N -t 0.026599 -n 16 -e 99.994677
N -t 0.026599 -n 0 -e 99.994677
N -t 0.026599 -n 13 -e 99.994677
N -t 0.026599 -n 6 -e 99.993870
N -t 0.026600 -n 3 -e 99.994677
N -t 0.026600 -n 22 -e 99.993443
N -t 0.026600 -n 11 -e 99.994677
N -t 0.026600 -n 20 -e 99.994192
N -t 0.026600 -n 10 -e 99.994677
N -t 0.026600 -n 15 -e 99.995843
N -t 0.026600 -n 1 -e 99.994931
s 0.026667997 _18_ RTR  --- 0 AODV 48 [0 ffffffff a 800] [energy 99.995800 ei 0.000 es 0.000 et 0.000 er 0.004] ------- [18:255 -1:255 26 0] [0x2 5 1 [20 0] [4 4]] (REQUEST)
N -t 0.026962 -n 0 -e 99.994586
N -t 0.026962 -n 16 -e 99.994585
N -t 0.026962 -n 3 -e 99.994586
N -t 0.026962 -n 4 -e 99.994480
N -t 0.026962 -n 22 -e 99.993352
N -t 0.026962 -n 13 -e 99.994585
N -t 0.026962 -n 20 -e 99.994101
N -t 0.026962 -n 11 -e 99.994586
N -t 0.026962 -n 10 -e 99.994586
N -t 0.026962 -n 1 -e 99.994840
N -t 0.026963 -n 23 -e 99.995454
N -t 0.026963 -n 24 -e 99.996218
N -t 0.026963 -n 18 -e 99.995709
N -t 0.026963 -n 8 -e 99.995709
N -t 0.026963 -n 5 -e 99.995963
N -t 0.026963 -n 15 -e 99.995752
N -t 0.026963 -n 9 -e 99.996366
N -t 0.027276 -n 16 -e 99.994379
N -t 0.027277 -n 0 -e 99.994379
N -t 0.027277 -n 13 -e 99.994379
N -t 0.027277 -n 6 -e 99.993481
N -t 0.027277 -n 3 -e 99.994379
N -t 0.027277 -n 22 -e 99.993146
N -t 0.027277 -n 11 -e 99.994379
N -t 0.027277 -n 20 -e 99.993894
N -t 0.027278 -n 10 -e 99.994379
N -t 0.027278 -n 15 -e 99.995546
N -t 0.027278 -n 1 -e 99.994634
s 0.027516891 _8_ RTR  --- 0 AODV 48 [0 ffffffff a 800] [energy 99.995709 ei 0.000 es 0.000 et 0.000 er 0.004] ------- [8:255 -1:255 26 0] [0x2 5 1 [20 0] [4 4]] (REQUEST)
N -t 0.027741 -n 18 -e 99.995454
N -t 0.027741 -n 5 -e 99.995709
N -t 0.027741 -n 10 -e 99.994192
N -t 0.027742 -n 1 -e 99.994446
N -t 0.027742 -n 23 -e 99.995200
N -t 0.027742 -n 3 -e 99.994192
N -t 0.027742 -n 14 -e 99.999237
N -t 0.027742 -n 2 -e 99.998752
N -t 0.027742 -n 11 -e 99.994192
N -t 0.027742 -n 24 -e 99.995963
N -t 0.027742 -n 12 -e 99.997264
N -t 0.027742 -n 17 -e 99.999746
N -t 0.027742 -n 7 -e 99.997264
N -t 0.027742 -n 6 -e 99.993294
N -t 0.027743 -n 20 -e 99.993707